LAMMPS data file via write_data, version 30 Mar 2026, timestep = 1200, units = real (AT-only, extracted from backmapped system)

6000 atoms
5500 bonds
5000 angles
2 atom types
2 bond types
1 angle types

0.0 57.5376 xlo xhi
0.0 57.5376 ylo yhi
0.0 57.5376 zlo zhi

Masses

1 15.035
2 14.027

Atoms # full

3935 328 2 0 47.726926697989796 52.75718785097288 51.09213711422536 0 -1 -1
3936 328 1 0 48.83552355404486 51.68444635232555 51.07020586765369 0 -1 -1
1685 141 2 0 56.17542616495607 4.482923466740414 2.482186555848202 -1 0 0
2770 231 2 0 55.662650448559205 6.3856726349623925 17.85649229168931 0 0 0
2769 231 2 0 54.54753751097503 7.170398767272932 17.04002186123169 0 0 0
3723 311 2 0 50.044014373574214 5.071813238714925 55.13880504846163 -1 0 0
3724 311 2 0 49.676555560840036 4.674371205440696 56.67738690834488 -1 0 0
223 19 2 0 54.05654129202361 8.47794456148446 54.842903099031865 -1 1 0
2293 192 1 0 9.970064068659152 0.5398815507612882 11.451130656288269 0 0 1
2294 192 2 0 10.133964292914568 1.7937189157521793 10.408048767850921 0 0 1
818 69 2 0 9.326936569738953 16.080402480458726 10.31985333538389 0 0 1
5318 444 2 0 43.09927889331546 2.4446932345053236 6.431936470597423 -1 0 1
5317 444 1 0 43.69642245479112 0.9265949883534544 6.546128107070507 -1 0 1
4756 397 2 0 10.90007313069703 10.455170215390948 51.150180460365114 0 1 0
4755 397 2 0 9.55861446395956 11.069343754665262 50.563485589486596 0 1 0
4 1 2 0 18.530742025485043 6.844399993188073 49.13272944792469 0 0 -1
2339 195 2 0 0.5596893148100401 2.7696382302458806 48.97261427824745 0 0 -1
2806 234 2 0 55.8526140888751 14.833168959849951 9.04341356938231 -1 0 0
494 42 2 0 11.288531197128773 3.170511760711027 52.2131935016024 0 1 -1
493 42 1 0 11.415878139199695 2.6421778670262377 50.69506503515481 0 1 -1
1671 140 2 0 4.416705287414915 50.4442471241559 2.866429018809948 0 0 0
1672 140 2 0 4.548567712310328 50.8721822530352 4.367285563693231 0 0 0
927 78 2 0 18.975597017277874 7.671834266424091 16.344196948233876 1 1 0
928 78 2 0 17.324909081463925 7.696963697226112 16.24327231543236 1 1 0
2805 234 2 0 56.669283143667315 16.010599936808084 9.851706356932569 -1 0 0
1887 158 2 0 24.653873555045188 3.2385286936355495 6.789430197760462 0 1 0
1888 158 2 0 24.777544566392077 3.2738313707458166 8.32217974016542 0 1 0
3269 273 2 0 23.37975022252669 55.244246669058455 7.609123888393656 0 0 0
817 69 1 0 10.526142136355338 17.044992715149995 10.667607008320386 0 0 1
4243 354 2 0 21.472215559942793 9.45489467391399 49.3814752990333 0 0 0
4244 354 2 0 21.720247792855485 8.915749494589766 50.87974698411189 0 0 0
3177 265 2 0 17.881593638833408 56.14745056619381 5.36441505111288 0 0 1
3178 265 2 0 16.52923642195443 57.04604656548705 4.947656299889283 0 0 1
1382 116 2 0 12.78963252253008 10.792952633995363 8.597069581707412 0 0 0
1383 116 2 0 24.99150718009637 20.95067270593173 4.128862605002096 0 0 0
3 1 2 0 18.710340819141106 7.85183921052985 50.45804284053935 0 0 -1
3270 273 2 0 23.28733132412345 55.966487403655194 9.098986067798728 0 0 0
4765 398 1 0 12.583078783551073 4.9355274396235 54.152491214364254 0 0 -1
4766 398 2 0 13.160981327721839 4.866689381850216 52.70030972879951 0 0 -1
649 55 1 0 13.10545215621414 55.19692757820048 18.388153027512843 0 0 1
4988 416 2 0 14.13454055521164 44.51668418099448 53.86921139700285 0 -1 0
4185 349 2 0 13.759340094250687 14.802108171709131 46.19753777608664 0 1 0
4186 349 2 0 14.476681839858967 16.16794182099546 46.303078415210884 0 1 0
5099 425 2 0 38.081934940722476 16.937881357514865 9.120584908095859 0 0 0
1381 116 1 0 11.104677823060998 10.873595451035484 8.232080721571899 0 0 0
4879 407 2 0 41.86140514933192 6.176800118850312 13.091784331453843 0 0 0
4880 407 2 0 42.39789962966369 6.0347427074546705 11.472795521642004 0 0 0
780 65 1 0 15.454511008811188 8.114835413022764 10.641308565062086 0 0 0
5751 480 2 0 20.80537430714536 14.443640699847405 0.7647495590149381 0 0 0
5752 480 2 0 22.124366621691365 14.016173782040289 0.033424627792498975 0 0 0
3273 273 2 0 34.688565354063954 54.17477613543328 11.925692236851878 0 0 0
3274 273 2 0 35.85603827578171 53.69170177254188 10.965593867669076 0 0 0
1537 129 1 0 18.114794704934557 54.1246894270349 14.742860601544667 0 0 0
5891 491 2 0 21.912848353313212 11.876259408858704 5.887577485474935 0 0 1
5357 447 2 0 24.17829381012751 9.080798796051106 0.7408972890265273 0 1 1
5358 447 2 0 23.03203551762629 7.961956842948375 1.3780825181428207 0 1 1
4447 371 2 0 26.624213674800757 12.640310470821563 6.645353571850595 0 0 1
4448 371 2 0 27.318215360544666 11.267253626479539 6.500733971413476 0 0 1
5100 425 1 0 36.78571916913361 16.92735521530498 8.375801800883107 0 0 0
5346 446 2 0 40.2873008662014 18.70774060495727 55.43247242827115 0 0 -1
5430 453 2 0 37.893475530811145 14.369367649776175 51.91205279998109 0 0 -1
5429 453 2 0 37.211060335760685 15.681759465809737 51.260453400648196 0 0 -1
5345 446 2 0 41.62575883493558 17.848077160855734 55.34525720681471 0 1 -1
4155 347 2 0 47.019062989771 9.922458603282319 9.83050107149477 0 1 0
4156 347 2 0 46.58000610702673 10.182155980879807 11.323482314280774 0 1 0
4773 398 2 0 50.10783661193635 9.786755868266376 7.065032616414701 0 0 0
4774 398 2 0 50.09311246259365 10.693413456229122 5.535894599494364 0 0 0
578 49 2 0 33.7237333238925 7.997471276832784 45.25065877329544 -1 1 -1
2681 224 2 0 32.6886961502616 1.2599774549851188 17.245689477565396 0 1 0
2682 224 2 0 31.90986626371433 2.583724060594873 16.679325710533732 0 1 0
577 49 1 0 33.56846245950904 6.352950651155452 45.20651593866161 -1 1 -1
2971 248 2 0 36.43796857994693 54.60489147056929 43.599505049846165 0 0 0
2972 248 2 0 36.81538322365153 55.260284659024826 45.09779829661414 0 0 0
2263 189 2 0 30.983139761568385 11.432816752213558 51.33991917191186 0 0 0
2264 189 2 0 31.612207637330254 11.26913607022191 52.85304648094909 0 0 0
2854 238 2 0 47.88143532303605 9.519172816158708 7.743644285262904 0 0 1
2853 238 2 0 48.90438418121892 9.480132239102927 9.006315056341247 0 1 1
3291 275 2 0 34.06644730432316 5.6193271241737985 7.95212556268677 0 1 0
4658 389 2 0 44.817506238875815 47.97104458180013 2.147499546976696 -1 -1 0
4153 347 1 0 54.77343062268451 10.772522262967 2.9539916795330172 0 0 0
4154 347 2 0 53.62579377126527 9.743540905333342 3.3190381509731424 0 0 0
4775 398 2 0 40.039001600338786 7.573184877017397 54.72360156109689 0 0 -1
1449 121 2 0 49.178206760962205 15.66723177275754 56.99720685702151 0 0 -1
1450 121 2 0 49.775054067625504 14.151096065503694 57.010586342910194 0 0 -1
2161 181 1 0 46.745255226730066 56.5707706293479 13.116042916110523 0 -1 0
5263 439 2 0 55.550837034017384 55.65450304144463 20.63525216954979 -1 0 1
5264 439 2 0 55.6105005322859 57.26556335243553 20.99419257130555 -1 0 1
4049 338 2 0 35.96948609483064 0.2093666668500986 2.4011614090852493 0 1 1
4050 338 2 0 37.23641378490519 57.20962957069101 2.957935997925529 0 0 1
4051 338 2 0 49.12610186438637 1.8907688980744313 1.7458824554768582 0 1 1
4052 338 2 0 49.37562567092281 3.473426324707605 1.6263029927608987 0 1 1
5229 436 2 0 54.570435206630265 12.602354952974244 54.9047183660691 -1 0 0
3302 276 2 0 36.07550989526793 3.7776140359762556 54.56344265674225 0 1 0
1435 120 2 0 10.18812111403537 56.53010407315344 0.7294389178512353 0 -1 0
4661 389 2 0 54.06804604248693 54.01970710259756 14.668514719779717 0 0 0
4662 389 2 0 54.52731510790849 54.10786663393865 13.202751480187072 0 0 0
306 26 2 0 40.14368584236064 3.88650380989058 53.791662728025756 0 1 -1
2580 215 1 0 2.8899189570245873 47.77530116978587 2.8568352291457537 1 0 1
3726 311 2 0 53.47259440550443 3.9513039925914692 56.39352392464285 -1 0 0
3725 311 2 0 53.466375278114434 2.802205497311328 57.39178481742026 -1 0 0
5227 436 2 0 3.5915263910374815 9.980205351156261 47.46187223457231 0 0 0
5228 436 2 0 3.395317475020932 8.966172422909507 48.66016029008621 0 0 0
5230 436 2 0 55.15413461306402 13.887783835078645 55.60837271996765 -1 0 0
2927 244 2 0 3.7624227598472504 20.6573398882012 57.22162320853036 0 1 0
3179 265 2 0 0.2735768864113197 6.083987100962665 57.12654396603047 0 1 0
3180 265 1 0 56.24285323275948 5.937040440177545 0.040970267283302955 -1 1 1
1997 167 2 0 10.660134591878377 22.85479251650474 14.152891188472864 0 0 0
1998 167 2 0 11.875237995443564 23.554083267040845 14.980455283257951 0 0 0
2721 227 2 0 6.836053212255949 23.61210942636477 6.769651522923937 1 0 0
2722 227 2 0 8.122972186344688 22.71713021710593 7.2375325028178334 1 0 0
1686 141 2 0 56.81711418054154 5.716957449851671 3.3456205836232544 -1 0 0
887 74 2 0 44.755009126273166 1.1734049026399977 1.640432453458772 0 0 0
888 74 1 0 46.015451405882686 1.3858026847281317 0.6497142050297691 0 0 0
5439 454 2 0 5.104885196163591 15.392426684721082 11.124950628175627 0 1 0
5440 454 2 0 4.702466769158492 13.830874466261657 11.367059171893807 0 1 0
4571 381 2 0 13.970418128482367 26.292887278995398 52.199705359149846 0 0 0
4572 381 1 0 13.558745216576165 26.458172329503984 53.72670153877318 0 0 0
782 66 2 0 6.859902423991001 21.49354040698085 46.827273002371236 0 1 0
1689 141 2 0 14.888455390062136 14.603449166727971 20.182211244663026 0 0 0
1690 141 2 0 16.35502916746707 14.192539612171366 20.795759364211825 0 0 0
5749 480 1 0 24.760223926324624 11.2161938293205 54.122850364593695 0 0 -1
5750 480 2 0 25.018659762538697 10.575785610244267 55.45555686866817 0 0 -1
3971 331 2 0 10.816874080314872 3.3236941559463147 12.038630463855684 1 0 0
2079 174 2 0 56.33107343227205 14.108163984151224 15.744092331748227 -1 0 0
2080 174 2 0 57.26586044012781 12.99199117270135 16.40440603164105 -1 0 0
4381 366 1 0 12.171059199133392 25.51718049241567 5.203472924379231 0 0 0
4382 366 2 0 10.874084482619109 25.967645730821264 4.636225552212498 0 0 0
635 53 2 0 11.242548088959461 14.851194090122155 52.892667243917444 0 0 0
636 53 1 0 11.048887207652596 15.859726772236021 51.751992975168704 0 0 0
5653 472 1 0 22.416270732660216 6.015065056361581 51.78409595479201 1 0 0
5654 472 2 0 20.991086243292624 6.4525369619294715 52.36382039326364 1 0 0
785 66 2 0 55.68822336235952 22.360069198696348 6.155224983267936 0 1 1
786 66 2 0 56.18668247625307 21.106582363474597 5.310027922407442 0 1 1
81 7 2 0 34.74422997341995 18.711230207337607 9.955242979851892 1 0 0
82 7 2 0 35.17446481514697 19.91071906052629 10.979211083470549 1 0 0
2751 230 2 0 14.660089644230814 8.584541416624026 3.82926299429235 0 0 0
2752 230 2 0 13.811413889356393 8.705354686292118 5.093915412390744 0 0 0
1384 116 2 0 26.224686359332544 21.997728614208086 3.8492479820356835 0 0 0
3972 331 1 0 10.753700786561675 2.4526011973800927 10.693691663002767 1 0 0
4476 373 1 0 11.833317241832582 20.391456099866872 12.055481807749404 0 0 0
5597 467 2 0 20.86244607659624 18.308014926489392 56.9558273869424 0 0 0
3416 285 2 0 23.92536079674369 11.33441003431708 41.30230046004695 0 0 0
3415 285 2 0 22.443189579752758 10.870701684935165 41.03212825153921 0 0 0
4245 354 2 0 26.682386346920673 55.95030706718629 5.026712575021172 0 -1 1
4246 354 2 0 25.96243735841732 55.51031971870306 6.363034599335032 0 -1 1
1091 91 2 0 20.9764837689521 55.566557350685436 9.57504228580454 0 -1 1
1257 105 2 0 6.992810226378506 15.54262998287478 14.24866221443849 0 0 1
1258 105 2 0 7.343697489983579 16.66208570613535 13.209934221195288 0 0 1
2824 236 2 0 36.77048224542961 11.030143250585848 49.137510527411656 0 0 -1
5757 480 2 0 36.615792290110186 20.673425577282313 51.26192492334494 0 0 -1
5758 480 2 0 36.44575164066231 21.448274475090415 49.90491326067085 0 0 -1
4875 407 2 0 25.43067010025502 22.927059324400766 17.86159734454099 0 0 0
4876 407 2 0 25.551069289025694 21.81555584503426 16.772939286709637 0 0 0
1307 109 2 0 34.45379724773393 14.25348102817275 4.4114252032622625 0 0 0
1308 109 1 0 35.39534887421601 13.858502180706783 3.2958400360279567 0 0 0
3564 297 1 0 37.13175390040343 27.459107156125857 2.6876363896559976 0 0 0
669 56 2 0 41.425006306364324 19.50931604047614 54.74913148644195 1 0 -1
2731 228 2 0 28.15343913783203 12.081400185986839 13.790667371859847 0 1 0
2732 228 2 0 29.273439488417257 10.820646458050465 14.035027143524065 0 1 0
509 43 2 0 25.12459714994615 4.50201185477691 10.241742745960325 0 0 0
4525 378 1 0 29.48232713714187 11.655716432343688 52.561268010665984 0 0 -1
4526 378 2 0 30.13235805874505 10.275140441942492 52.565799619821355 0 0 -1
1479 124 2 0 23.24625277564935 16.50011860846441 7.627687978673658 0 0 0
1480 124 2 0 23.761803838972593 15.445059486121211 8.839634935886075 0 0 0
4195 350 2 0 33.51572314819013 17.26499124890621 15.214207713548534 0 0 0
4196 350 2 0 33.770155243365345 18.595556839705953 16.114052284967848 0 0 0
4193 350 2 0 40.18744578087115 19.092089428120264 12.972995922750204 0 0 0
4194 350 2 0 39.06985971483366 18.118714636339693 13.640662105144173 0 0 0
4877 407 2 0 32.92388825791153 12.399993396942268 17.077271329264835 0 0 0
4878 407 2 0 33.16310657868975 10.763091916954643 16.98760348156819 0 0 0
778 65 2 0 27.845679466954024 20.43857061587758 56.50343390687698 0 0 -1
1575 132 2 0 24.89766591067915 11.29505959685038 52.15638179136165 0 0 -1
1576 132 2 0 25.156244802933085 11.917316414110894 53.59697505719332 0 0 -1
3932 328 2 0 47.11862113758715 16.436007441024895 55.32149343086282 0 1 -1
172 15 2 0 48.76558338432393 11.77378677305347 55.6665452524754 0 0 0
2995 250 2 0 24.005080857140715 20.370702818175907 8.540627194339008 0 1 1
2996 250 2 0 24.377372304528617 19.84620763559147 7.097436533884423 0 1 1
5343 446 2 0 44.10731654209354 8.834123456856357 55.03432203672701 0 0 -1
5344 446 2 0 43.48125555538625 10.034365776258937 55.94632630379939 0 0 -1
2545 213 1 0 1.0169701392236958 11.886811174892733 2.8705831509109694 1 0 0
2546 213 2 0 57.47223298137188 12.033579812045785 1.6276778099267197 0 0 0
2547 213 2 0 48.20132360525856 0.4313460471026186 53.90158573007785 0 0 -1
2548 213 2 0 46.96694020420399 57.14942308242526 53.23397340848983 0 -1 -1
3934 328 2 0 46.06537813046179 1.062158372835027 52.618882821167546 0 0 -1
3933 328 2 0 45.42375939964723 2.508060984080671 52.64804002196235 0 1 -1
961 81 1 0 51.19146529252947 13.275736648640954 15.3179460847819 0 0 0
962 81 2 0 49.64610665932594 12.930048603681369 15.283686543861519 0 0 0
4746 396 2 0 47.34951582455497 11.613444616690709 3.557325588858683 0 1 0
3219 269 2 0 43.530174110745705 22.455043298605172 17.04548172674306 -1 1 1
3220 269 2 0 44.258871428787565 21.292671356728825 18.00765866634905 -1 1 1
5321 444 2 0 55.53569075218781 18.233550351847427 12.090672986663623 -1 0 1
5322 444 2 0 55.751763314358584 19.538964014875056 11.241688769936124 -1 0 1
5555 463 2 0 2.913037493323256 14.596144163409502 0.4264421329574945 1 0 1
1339 112 2 0 42.12419384848543 17.439419300032128 55.34777728540831 0 0 0
1340 112 2 0 43.28198725918521 17.48739227271827 54.19061468402043 0 0 0
2337 195 2 0 2.315363713278415 3.9778441421904813 55.33370851006969 0 0 -1
2338 195 2 0 2.927224731941712 2.990229335400413 54.191809317437105 0 0 -1
3368 281 2 0 49.25851819194508 55.70946997481414 10.964319651975368 0 0 0
1292 108 2 0 37.50628831207249 22.406580322530782 52.76013374144321 0 0 -1
3367 281 2 0 48.358119752328356 54.47425398471074 10.414596234181523 0 0 0
1871 156 2 0 43.37783723001947 10.504299948164142 50.09471803677496 0 0 0
5319 444 2 0 43.531578337018836 8.233335398933738 12.870320256851102 -1 0 1
5320 444 2 0 44.60341142336616 9.395980813880056 13.216172686700675 -1 0 1
781 66 1 0 8.05645965888277 20.514565936765926 46.332014381281645 0 0 0
2377 199 1 0 43.33898439842377 14.471430541998236 56.85998748530647 -1 0 0
2378 199 2 0 42.10872989168538 14.112774792757849 0.3857214572859194 -1 0 1
2432 203 2 0 53.47260742778711 15.603759171875964 49.01876663621108 0 0 0
129 11 2 0 53.04110237350539 12.800397087101345 4.249982650455532 0 0 0
130 11 2 0 54.12698235740172 11.978845668896899 3.2800941809584874 0 0 0
5476 457 2 0 4.5651944712922585 23.210158958046396 20.15882851394081 0 0 0
1801 151 1 0 56.37001530889286 24.454901877915646 47.76665804381286 -1 1 -1
1802 151 2 0 55.404407553935826 23.200691066457605 47.70637719276564 -1 1 -1
2130 178 2 0 15.146438134408493 21.606163352888213 54.789590019033575 0 0 -1
5331 445 2 0 15.553753189118309 26.400999256629675 14.36629322417197 0 0 0
5332 445 2 0 14.90057590258678 24.955206097385386 14.29954375014386 0 0 0
3387 283 2 0 4.4725957339920726 26.25957183787516 45.42987782768819 1 0 0
2925 244 2 0 7.231197622642209 10.780861685587874 2.4100458364360264 0 1 1
767 64 2 0 57.072457263470596 33.33292035943274 2.6015179664043253 0 0 0
1999 167 2 0 19.59010192991388 30.183752058631274 12.168704844209765 0 0 0
2000 167 2 0 19.625738428484798 28.91328424541576 11.433393306715374 0 0 0
1253 105 2 0 12.127267503729234 24.388189101252223 0.23949749942318554 0 0 0
1254 105 2 0 11.583989729120617 22.925778454211418 0.7651936891233944 0 0 0
4518 377 2 0 25.565011460566623 18.57235455944415 4.0852338032767435 0 0 0
4517 377 2 0 24.222500306303345 19.564371729825556 4.03031675568887 0 0 0
5705 476 2 0 26.700902268450772 26.733974003630586 8.956276518451432 0 0 0
5437 454 1 0 5.384535051166642 12.319905313405547 15.222611146562475 0 0 0
5438 454 2 0 4.155077855434972 12.145120855812856 14.272963260731686 0 1 0
5413 452 1 0 19.672612226769967 19.203791586069897 0.3107569783245981 1 0 0
5414 452 2 0 18.542343887856166 19.362774411644164 1.475058848656786 1 0 0
1511 126 2 0 4.1088441059044465 40.693550929909414 6.5281589356313345 0 0 1
1512 126 1 0 5.1109875893658145 39.44218579572744 6.730208747799887 0 0 1
5628 469 1 0 19.482816577827453 29.373359838561047 56.71162324732687 0 0 0
4079 340 2 0 23.63461855884165 24.03669378302769 6.617528378913546 0 0 1
4080 340 1 0 24.171963544172836 25.089198403643547 7.837060755751351 0 0 1
768 64 1 0 0.5244794599623328 33.455176627562246 1.3175956437544065 1 0 1
1207 101 2 0 6.7734870091433805 15.688103167981403 53.0251136852049 0 0 0
1208 101 2 0 6.1929076040064555 16.4886289060863 54.31562737672832 0 0 0
1259 105 2 0 1.8249345746551364 18.238913917319525 52.807982532161155 0 0 0
1260 105 1 0 1.1316858887820795 17.757634326046844 51.37136786783144 0 0 0
5627 469 2 0 20.36795265256014 30.60488889419868 56.40389304498507 0 0 0
4891 408 2 0 21.824046466064466 37.19866998358995 56.58725190495524 0 0 0
4892 408 2 0 21.047842223484913 36.12659185459438 0.005436424121390615 0 0 1
1385 116 2 0 28.225716476864598 14.933437911632623 3.896289260680478 0 0 0
1386 116 2 0 26.91347801580788 15.250710465091935 4.669364821424019 0 0 0
2977 249 1 0 26.665675610213373 19.90091126720244 46.81072740958481 0 0 -1
2978 249 2 0 25.512464979874107 20.73417688711377 47.45930227592051 0 0 -1
5706 476 2 0 28.043477769910986 25.868990472678963 8.73806502935804 0 0 0
511 43 2 0 20.761155594180842 13.406837551954188 8.637348547628491 0 0 0
512 43 2 0 21.31717826175966 14.9068188334871 8.510555352606534 0 0 0
1693 142 1 0 18.052159504040393 29.061756347222346 7.717678523631798 0 0 0
1694 142 2 0 16.369369441400895 28.968285167597646 7.679955105813892 0 0 0
3251 271 2 0 37.12270967330396 29.610300057356348 2.895837915733807 0 0 1
1255 105 2 0 12.494418331112312 10.087652489467409 7.821806455929036 0 0 1
1256 105 2 0 12.293610290572019 8.964742368057143 8.899625073002463 0 0 1
2823 236 2 0 36.45995528764884 12.183169369028162 50.407086521347004 0 0 -1
671 56 2 0 39.29574086439336 19.18612904675756 51.58677734851806 1 0 -1
672 56 1 0 38.50814027447044 18.928557427114303 50.23245165225408 1 0 -1
3151 263 2 0 28.193983662863875 30.103765928906093 9.085968098852035 0 0 0
3152 263 2 0 29.47189589697739 29.22837804785333 9.51734417188167 0 0 0
3563 297 2 0 36.43891206029111 26.88057931082334 3.982883826210391 0 0 0
1 1 1 0 16.796792226097047 13.401431076553736 12.607932398396619 0 0 0
2 1 2 0 16.5212453450513 12.62142578827855 11.19367791137014 0 0 0
670 56 2 0 39.909014208459986 19.235071423394572 54.58351078515821 1 0 -1
510 43 2 0 23.57266563983601 4.600782303461525 10.052448333359026 0 0 0
4059 339 2 0 31.324785493862084 15.464456497971844 14.062864887466523 0 0 0
2730 228 2 0 22.0431932429334 31.242038005403447 9.089850964448798 0 1 0
2729 228 2 0 21.21693055450146 32.564017314612116 9.205096305587276 0 1 0
3252 271 1 0 35.6389496872702 29.572476775986264 2.5132518838755975 0 0 1
631 53 2 0 29.722252974775326 10.474353626571714 52.15780030060202 0 0 0
632 53 2 0 29.611676066681557 9.02043243025859 52.65539069124224 0 0 0
1391 116 2 0 30.464766159471296 31.74858598377459 56.473755836252266 0 0 0
1392 116 1 0 30.689670502732845 33.2904393652831 56.8822913685442 0 0 0
2095 175 2 0 55.29411562699264 13.135188799330804 3.6888706416042023 0 0 0
2096 175 2 0 56.799108977836894 13.806517664431034 3.4639828463306537 0 0 0
10 1 2 0 26.76931242042664 18.49131745818196 4.423624634081486 0 0 0
777 65 2 0 28.712891934596552 21.521033850549145 55.633120455464926 0 0 -1
2197 184 1 0 30.779230550856298 31.297024215126125 7.187125681276612 -1 0 0
2198 184 2 0 32.333202540394346 31.396569886319156 6.818653726389313 -1 0 0
1287 108 2 0 41.46464924174592 19.768149904651985 3.6802347446855777 0 0 0
4969 415 1 0 30.92321938896794 10.86421902279254 4.004691565562229 0 0 0
4060 339 2 0 31.61767613257866 15.548118098107608 12.526042061718208 0 0 0
1002 84 2 0 36.44111013397708 30.6477908196868 14.508852846437525 0 0 0
5905 493 1 0 38.26251874600959 15.85509099732727 2.291710517508985 0 0 0
5906 493 2 0 38.77527498650575 16.331304406064874 3.7692358428548345 0 0 0
3161 264 2 0 24.152707282349997 34.47776967649407 57.08399328060182 0 0 0
3162 264 2 0 25.013425258673415 33.17650936068956 57.169279228631815 0 0 0
93 8 2 0 34.37949906942564 27.461732882513726 12.258953373515917 0 0 1
2265 189 2 0 45.11937483203485 5.545647517292329 6.627543684963074 0 0 1
2266 189 2 0 46.45594409784462 4.922490099141461 7.21157808782435 0 0 1
5879 490 2 0 47.10804509684523 35.162554603942944 8.731272922554146 0 0 1
5880 490 1 0 47.36000427813854 34.414909643240556 10.10096917047695 0 0 1
1335 112 2 0 51.20658685800549 14.962717245632549 57.23534997073087 -1 0 0
2381 199 2 0 23.804730664059292 22.585878945339935 13.513443569600621 -1 0 1
3316 277 2 0 35.24877167149324 23.448841514321757 6.273974318477806 0 0 0
2206 184 2 0 31.480745320286413 29.742848343768873 54.48024149912319 0 0 -1
713 60 2 0 37.92965207461386 12.546185931986761 2.519573771237843 0 0 0
714 60 2 0 39.25206746926744 11.968489660998452 3.4174346709236727 0 0 0
4971 415 2 0 36.54722681222699 23.769562157345717 52.71817781520907 0 0 -1
4972 415 2 0 37.026253845627615 23.996862461778395 51.029041872872455 0 0 -1
2788 233 2 0 51.31435174955631 29.103341893708194 18.45261999589957 0 0 0
2961 247 2 0 44.33755875122085 35.40675104054971 9.213175782911604 0 0 0
2962 247 2 0 45.263041462490776 35.99605312483123 7.991258357870675 0 0 0
3865 323 1 0 48.7007682445581 31.411645895545064 50.50222863430375 0 0 0
3866 323 2 0 47.330671072851295 30.716362746936753 50.689151906540545 0 0 0
3575 298 2 0 2.8194683692913163 38.370689460456006 54.653939898482925 1 0 -1
3576 298 1 0 2.3303853413605546 37.40445914378563 55.71911169238805 1 0 -1
1993 167 1 0 46.21922592918573 28.873491074842615 10.84349965397846 -1 0 0
333 28 2 0 50.519215495526 19.71602667235048 57.47339592032791 0 0 -1
334 28 2 0 50.870673511920565 19.17599832480562 56.00242607258817 0 0 -1
5324 444 2 0 52.43679063996211 19.42631782390531 11.646232953387017 -1 0 1
5323 444 2 0 51.33974219057219 18.601066855334544 10.996478135614076 0 0 1
2431 203 2 0 53.69402540801732 16.706570662013913 50.17084778445861 0 0 0
4314 360 2 0 6.179780341731934 22.39454229193728 2.27813237657875 1 0 1
4313 360 2 0 4.933918204704819 23.523559049630567 2.2869083341541834 1 0 1
4591 383 2 0 1.9071834553352163 22.47156002789318 53.43745722415368 0 0 0
4592 383 2 0 3.443878496518991 22.008207219021774 53.285646433958526 0 0 0
5232 436 1 0 3.8944038900291913 21.914538021029557 6.296583435036539 1 0 1
1839 154 2 0 2.6622507219076197 28.574857285517066 5.158319496273515 0 0 0
1840 154 2 0 3.0966662330630355 29.5364747727491 3.985572498705251 0 0 0
2363 197 2 0 9.38307728872702 20.312349481299638 10.11502027645708 0 -1 0
2204 184 2 0 5.610137260469119 33.348069704395876 57.19543590041965 0 0 -1
3659 305 2 0 7.563655985977806 14.940334835880103 11.415184878353914 0 0 0
3660 305 1 0 6.773405453389269 14.353864518290857 10.117065761195752 0 0 0
2203 184 2 0 4.438958560251603 33.410381492343696 0.812349194578612 1 0 0
1923 161 2 0 21.23083338337851 22.45793257133266 4.0851875426487085 0 0 0
1924 161 2 0 22.324516133851684 21.185139755509876 3.7981479451679103 0 0 0
4030 336 2 0 10.567005341657781 42.02825051878906 9.753783396934235 0 0 0
1695 142 2 0 52.42687632112418 24.909495746837386 10.188682425143963 -1 0 0
1696 142 2 0 51.668861157901304 25.47087701809667 11.52369794230884 -1 0 0
2798 234 2 0 15.464929988835427 29.648577065929327 9.994766238839528 0 0 0
445 38 1 0 21.03913683661699 39.175514721313846 55.444038461826295 1 0 -1
4027 336 2 0 10.887681813242263 40.98762143296508 8.531388239834662 0 0 0
4028 336 2 0 12.044776824656836 40.47759224206165 7.655126621390296 0 0 0
4029 336 2 0 9.042476518116008 42.00821162515824 9.652814467724925 0 0 0
4957 414 1 0 0.8777111516519677 22.197327980880093 13.72933584626305 0 0 0
1205 101 2 0 0.10597705528249171 23.187111360527606 43.360341076863826 0 0 0
1206 101 2 0 0.14539336987318308 22.181074945470986 44.69295722945062 0 0 0
1341 112 2 0 54.836929334928236 18.688002773059168 47.9616813254583 0 0 0
1342 112 2 0 56.469610722248525 18.945004993443394 48.49152199351504 0 0 0
5693 475 2 0 11.998870549606227 37.61162314428305 7.998129164526241 1 0 1
5694 475 2 0 12.838394583370638 36.29570052792404 8.346543485506611 1 0 1
3421 286 1 0 4.830259149051379 31.69739980771915 20.767450467135827 0 0 1
3422 286 2 0 5.234531912660179 31.1226505262143 22.075918273250394 0 0 1
3988 333 2 0 13.553360019016745 24.175225270826306 52.28924377413395 0 0 -1
5477 457 2 0 56.036767798527805 25.361328356172173 2.1652332854733176 -1 0 0
5478 457 2 0 54.90210481298979 26.244327337344238 1.4369051986867505 -1 0 0
3987 333 2 0 13.575458949428738 25.12166730104719 51.053871171727614 0 0 -1
856 72 2 0 9.85405538257863 25.32471559566021 13.364293783900033 0 0 0
5897 492 2 0 11.980378573940806 29.281928155614573 6.00947347499098 0 0 0
855 72 2 0 9.969894379901005 26.73121869246902 14.131572528845032 0 0 0
3491 291 2 0 15.513039125435448 27.641404836730505 8.460194812987062 1 0 0
3492 291 1 0 15.407050430837526 28.706521934244563 7.341394408342535 1 0 0
594 50 2 0 12.64872373972088 22.4619580192403 22.929317127020834 1 0 0
5934 495 2 0 24.67687021288953 33.680141532976215 16.275953496280803 0 0 0
5933 495 2 0 24.405079228974753 35.201209544385506 15.562812280169997 0 0 0
446 38 2 0 21.29249771750229 40.240883332767154 56.60792943643114 1 0 -1
4958 414 2 0 1.855643626681904 20.796407332787933 13.850998008263096 0 0 0
3160 264 2 0 22.815391408652147 40.80342420688561 57.3319841993565 0 0 0
3149 263 2 0 23.72752833954693 28.370623121982188 10.183028425446963 0 0 0
3150 263 2 0 24.284385668135666 28.97267281629947 11.539223216061517 0 0 0
609 51 2 0 23.76062731610757 36.136533572510245 56.066293306275924 0 0 -1
610 51 2 0 24.072341139005783 34.78220507570118 55.33189882889595 0 0 -1
593 50 2 0 13.082155476604528 22.32850677799656 21.421970092756865 0 0 0
1598 134 2 0 12.923486751897407 29.582011617064584 45.75937196032486 0 0 -1
1597 134 1 0 12.015112188662124 29.609280794091493 44.48515827217762 0 0 -1
3782 316 2 0 19.443361834593823 44.793993242636084 7.069964122948158 1 0 0
3781 316 1 0 20.334902710676786 45.80031781930154 7.826446105026575 1 0 0
1477 124 1 0 19.58107835385468 23.474399090652057 54.33488077663462 0 0 -1
1478 124 2 0 19.955654657166235 22.079913066409933 54.85097654275663 0 0 -1
4365 364 2 0 26.871695321720175 22.325321110632526 50.411380777001334 0 0 0
4366 364 2 0 25.522688441538328 22.80156062672763 51.35633451444305 0 0 0
2979 249 2 0 26.43398827675424 27.058847635121065 48.33767888927716 0 0 0
2980 249 2 0 26.32825062387975 27.189514232490247 49.92296297021771 0 0 0
4595 383 2 0 13.856405316105748 27.48645485363817 48.120607137841866 0 0 0
4596 383 1 0 15.256644100375919 28.188287021449472 47.672975464427196 0 0 0
4893 408 2 0 14.329154030001833 28.98154000018236 6.568589883526029 0 0 1
5815 485 2 0 34.85199021401777 40.56641667218951 50.63549451127183 0 0 0
3991 333 2 0 32.55473915513976 35.80057777653267 8.884024381268986 0 0 0
4824 402 1 0 22.43144607044759 24.073309684129967 11.102243552072153 0 0 0
3558 297 2 0 31.606261129674333 30.62250904291522 54.72571698545408 0 0 -1
5482 457 2 0 24.541711812126486 30.20873016509133 11.225722611630053 0 0 0
3557 297 2 0 31.692968514531763 29.916406520527946 53.30618951905104 0 0 -1
4823 402 2 0 20.946371169016142 24.32008702650508 11.649722415369924 0 0 0
211 18 2 0 22.601551201734917 18.559124948230963 2.361954586659668 0 0 0
212 18 2 0 22.521107665733883 19.408806786669007 3.7333358929908136 0 0 0
1303 109 2 0 26.138449757907452 24.134985736023598 11.889553003784197 0 0 0
913 77 1 0 37.26182340582391 16.82649677099184 15.05941978535026 0 0 0
3279 274 2 0 28.88902338335636 32.070448273455845 7.941317888264234 0 0 0
3280 274 2 0 30.490872850731485 32.33954888528245 8.502522128539125 0 0 0
973 82 1 0 28.97591899836044 36.394280655021525 18.75135997291019 0 0 0
4855 405 2 0 29.833836560059183 38.12857065118517 55.8805607122366 0 0 0
4856 405 2 0 28.508279918702083 38.67185283064072 56.541077804149324 0 0 0
4894 408 2 0 12.647783880211229 29.098106238853298 6.9565889770375735 0 0 1
3992 333 2 0 33.69986618970751 36.90175946556953 9.29116624889963 0 0 1
2383 199 2 0 33.26083618910056 31.911679862439335 8.9532612534652 0 0 1
2384 199 2 0 34.47596042124526 31.214401574955296 9.62690529398225 0 0 1
5816 485 2 0 33.51951707973673 40.87508130823634 51.53959807454769 0 0 0
125 11 2 0 34.073326752058996 23.488437884263654 47.95640111354577 0 0 -1
126 11 2 0 35.14783087009984 22.641147870832345 48.86936965337276 0 0 -1