LAMMPS data file via write_data, version 10 Dec 2025, timestep = 10000, units = real

60 atoms
2 atom types
50 bonds
3 bond types

0 57.5376 xlo xhi
0 57.5376 ylo yhi
0 57.5376 zlo zhi

Masses

1 29.062
2 28.054

Atoms # full

109 7 1 0 4.885372268753814 4.437974395757961 8.840065703447983 0 0 0
110 7 2 0 6.994824987454545 2.8378909033613517 9.408538835637787 0 0 0
111 7 2 0 4.694756506393694 3.658213721270178 8.482814064701833 0 0 0
112 7 2 0 3.5467491942473037 3.372804902536541 6.180516669190999 0 0 0
113 7 2 0 1.7175073406536556 1.6540867034045137 6.129423857331139 0 0 0
114 7 1 0 0.2283889711945559 1.7506017835084071 7.7182636639276945 0 0 0
78 5 1 0 49.94949477809756 0.278633858644661 1.7400600388481804 0 0 1
3 1 2 0 39.347246953153004 17.8396570827046 7.1921927447954355 0 0 0
4 1 2 0 40.6186369837913 17.566622349607137 5.0658764170339285 0 0 0
5 1 2 0 41.904800837231974 18.534010909580083 6.563688828219174 0 0 0
6 1 1 0 43.6164253278606 16.782602430891746 7.169927056057851 0 0 0
1 1 1 0 40.635611395102345 16.65091949999254 11.423729226128607 0 0 0
2 1 2 0 38.8957921744305 16.697689338250083 9.480828727091152 0 0 0
73 5 1 0 53.92126947173009 54.51061597128067 1.5575850103795925 0 0 1
39 3 2 0 19.616934797486316 1.265496949261307 15.340873188873191 0 0 0
40 3 2 0 19.552861562236966 1.9467229755380508 13.210492578216904 0 0 0
41 3 2 0 20.041128679953427 3.9026272846064187 14.255570352110011 0 0 0
42 3 1 0 20.482686620532608 4.792959569187321 12.418117043287445 0 0 0
38 3 2 0 17.617194857671407 0.9756398142919437 14.475686118352588 0 1 0
37 3 1 0 17.788941903362133 56.56886475942723 13.054758645734617 0 0 0
163 10 1 0 52.388681293134844 5.202946882975698 31.72205911780362 0 0 0
164 10 2 0 52.23113171971921 6.573338872618391 33.77132001969746 0 0 0
60 4 1 0 22.314451551144174 23.35224583391788 30.724785803304066 0 0 0
59 4 2 0 24.225538401609118 23.99816340157789 29.3119767284035 0 0 0
55 4 1 0 26.867047116925765 27.514522405793866 26.314024485601905 0 0 0
56 4 2 0 24.53618489768129 27.304344879719423 26.310315431762913 0 0 0
57 4 2 0 26.269072735496735 25.9507483123722 27.111102173171503 0 0 0
58 4 2 0 25.859274746867996 23.640688705307877 27.75190741984628 0 0 0
149 9 2 0 37.16451021979955 39.274191304257386 32.198826066347266 0 0 0
150 9 1 0 37.1951806678115 39.43953503876622 29.967774612491628 0 0 0
148 9 2 0 39.16235466953491 39.89807013296022 33.59755325764577 0 0 0
165 10 2 0 51.28090337618958 8.139299471049348 35.03446827009224 0 0 0
166 10 2 0 49.839774549298824 10.146929137343419 35.52058976894626 0 0 0
167 10 2 0 48.042096675401844 10.14429396193967 36.83570144756395 0 0 0
168 10 1 0 47.610147145431604 12.535231187338702 35.9404968497913 0 0 0
147 9 2 0 39.46214002724196 40.608241769633636 35.77508176831442 0 0 0
145 9 1 0 36.72028851472275 39.950425268437634 37.13930101185708 0 0 0
146 9 2 0 38.455943918425916 41.75289287042902 37.463962312739234 0 0 0
130 8 2 0 31.75466935297009 12.513362016774607 52.267723229721035 0 0 0
132 8 1 0 31.065720783572246 13.520305748945296 50.9517928910129 0 0 0
127 8 1 0 34.01428334756103 12.055396875304893 54.869019518339776 0 0 0
131 8 2 0 29.65168168514234 11.924976820714832 51.83085006076623 0 0 0
128 8 2 0 33.487708124774855 14.07720181083897 55.77253749423583 0 0 0
129 8 2 0 32.708356564887666 12.20681100641045 54.40334889717494 0 0 0
22 2 2 0 50.360827385886104 20.802797802822365 55.81245801740919 0 0 0
23 2 2 0 47.82026680577504 20.832538816842103 55.073016519927734 0 0 0
24 2 1 0 49.3833067657509 20.089840774752155 56.4554532079947 0 0 0
21 2 2 0 50.39299352241937 22.21932826758763 53.84719640539307 0 0 0
20 2 2 0 51.930435028730116 22.525017065072777 52.13930950849295 0 0 0
19 2 1 0 54.1189024352419 22.7941941662159 51.41074421404137 0 0 0
96 6 1 0 53.110047309742505 40.169080729086126 50.36179806944626 0 0 0
91 6 1 0 50.024111998985035 37.198949140536044 52.6464893553225 0 0 0
92 6 2 0 49.59903219789353 35.7868455779246 50.444035362304554 0 0 0
93 6 2 0 50.135700918877724 38.055435779898374 49.4722444759429 0 0 0
94 6 2 0 51.96434728601232 37.69926767538422 50.738534451624396 0 0 0
95 6 2 0 54.320090205349054 37.98332976680035 50.032119903101126 0 0 0
77 5 2 0 50.74027070887239 57.28981541829625 56.990791092520716 0 -1 0
74 5 2 0 53.807985875694314 55.03121529663323 56.92792944537009 0 0 -1
75 5 2 0 51.713983209865006 55.952373971566 55.72504137972196 0 0 -1
76 5 2 0 52.7585537841727 55.977493171421806 0.14664471753847572 0 0 0

Velocities

109 -0.0036930989219546217 0.0018490556750541654 0.002911367431344874
110 0.004330444535317136 -0.002740656443576649 0.00010588211251570751
111 -0.0035977460736442363 0.0011064755056973252 -0.006634375931698003
112 0.001786709768184153 -0.0015647573288991414 0.0020095805005093045
113 0.003950392017156918 0.000255059008026603 0.0009933175277342758
114 -0.0022084898562999646 0.0003680980417450503 0.0002890971862543856
78 -1.9082172484613192e-05 0.0004140968484699144 0.002291861899602863
3 -0.003311610363922167 0.00023832062374957397 0.001365312547697129
4 -0.00025791850324633885 -0.0013345872326376645 -0.003280729485234143
5 -0.0017262978034879926 0.002199899768464861 0.0028180920395817145
6 0.004703089276572368 -0.0024799829348398634 -0.0011563385871816254
1 0.003384270420695608 0.00021977640309853196 0.002664704066098716
2 -0.003088231765335618 0.0010445496600924276 -0.004187424746912589
73 -0.0006171671302508761 0.00019747046920465437 0.0013310499895271871
39 -0.003371801255374805 0.0007912555487333796 -0.004919687244075099
40 -0.0007622719104445924 0.0022988847102973532 0.0007034774570542952
41 -0.0009969330431281273 -0.0024029695859483463 -0.0012024608326708015
42 0.0023785073573600736 0.002847901883683394 0.0016815981659655114
38 0.0033295371519727283 -0.0016156169808409617 -0.0005261170106173114
37 -0.0017107671328855344 -0.0017912164216885682 0.003629323963471337
163 -0.0003141115743908096 -0.0003902787628984389 0.0004791836629566124
164 0.0015875206267300865 1.3383279968231262e-05 -0.00011852839900836881
60 -0.00015536938953693841 -0.0027377261824499785 0.00589800423553665
59 -0.0011616461539571748 -4.8038942738737244e-05 -0.008472350199928655
55 0.0052173892843663935 0.005519711383792884 -0.001274018255795969
56 0.0022628169495712185 0.00249068065448144 -0.0011052945392257749
57 -0.0077646762163963365 -0.004092344384303118 -0.0016204037007384307
58 0.0014196035820594056 -0.001232241218557632 0.006407919383671982
149 -0.0021171717554987874 -0.002861677142366904 -0.00022692671869963143
150 -0.0006796742415852755 0.0013673871541848366 -0.001451173484035349
148 0.0011430143218648615 0.0027964135000192432 0.0056425089965700245
165 0.0034803325659912452 -0.0048722378326774875 -0.0007177344991380086
166 -0.002633607667682078 0.0011076250803338464 -0.0010475128251245184
167 0.0002607805774421951 0.0013280500323178857 -0.0017109884692450292
168 -0.002287438982315996 0.002729411513960846 0.0029908980470716635
147 0.0021314500644615893 -0.0013145685800071082 3.712358340295152e-05
145 -0.004882011041651666 -0.004933305760542036 -0.002133674078589718
146 0.004604227926006681 0.005073876798456253 -0.0017390521981590443
130 -0.003104085959488039 0.0024798033596860306 -0.0002786627903078709
132 -0.0017417561708773213 -0.004172949392233809 0.0028823865914929976
127 -0.002565109004200373 0.0012668320321749806 -0.0001287183932993237
131 0.006163125985598307 0.002914305016905343 -0.0005339128630942011
128 0.0011763986480274344 -0.0008822464635329974 -0.001584852310124507
129 0.001055400872129675 -0.0010974312981135177 0.0003155566013394396
22 -0.007254629843210851 -0.002322384430718097 -0.00012658903439702327
23 0.005038097018573259 0.0033597110794319754 0.003197952232574864
24 6.146151869959588e-05 0.001316944888300853 -0.001261679551810974
21 -0.0028076567314296507 -0.0021632441913899568 0.0018059799945921563
20 -0.0007563207194476613 -0.006015212412424319 -0.00032567854560055587
19 0.00467062810567022 0.006032427979973675 -0.002212258883662427
96 0.001104770335389047 -0.0020762141481966154 0.000811015551228564
91 -0.00040550253115771153 0.001522920381863962 0.0013818006736139032
92 0.001076177729379425 -0.0004959783297802811 -0.0040305001897456205
93 -0.00933502406991851 -0.0022696143222827314 -0.0016386608970866085
94 0.004211715682447245 0.0018874925729748528 0.004049512427153539
95 0.003192210785163253 0.0006959384406525353 -0.0006549328155514157
77 0.0011585838357023154 -0.000440083043895642 -0.0021528548886168373
74 0.0011300533744101747 7.538508521566472e-05 -0.0031511979163485644
75 -0.00026097512159324224 -0.00039862852878092567 0.0006000470277595906
76 -0.0004291699154396547 0.0006830048575961285 0.0016056167746721225

Bonds

1 2 109 110
2 2 110 111
3 2 111 112
4 2 112 113
5 3 113 114
6 2 3 4
7 2 4 5
8 3 5 6
9 2 1 2
10 2 2 3
11 2 73 74
12 2 39 40
13 2 40 41
14 3 41 42
15 2 38 39
16 2 37 38
17 2 163 164
18 2 164 165
19 3 59 60
20 2 55 56
21 2 56 57
22 2 57 58
23 2 58 59
24 3 149 150
25 2 148 149
26 2 165 166
27 2 166 167
28 3 167 168
29 2 147 148
30 2 145 146
31 2 146 147
32 2 130 131
33 2 127 128
34 3 131 132
35 2 128 129
36 2 129 130
37 2 22 23
38 3 23 24
39 2 21 22
40 2 20 21
41 2 19 20
42 2 91 92
43 2 92 93
44 2 93 94
45 2 94 95
46 3 95 96
47 3 77 78
48 2 74 75
49 2 75 76
50 2 76 77
