LAMMPS data file for backmapping — generated by backmap-prep

60 atoms
50 bonds
0 angles
0 dihedrals
0 impropers

2 atom types
3 bond types
0 angle types
0 dihedral types
0 improper types

0.0 57.537600 xlo xhi
0.0 57.537600 ylo yhi
0.0 57.537600 zlo zhi

Masses

1 29.062000 # A (CG)
2 28.054000 # B (CG)

Atoms # full

1 1 1 0.000000 36.710000 17.950000 12.060000
2 1 2 0.000000 37.180000 16.620000 9.960000
3 1 2 0.000000 38.710000 16.810000 8.240000
4 1 2 0.000000 41.060000 16.400000 7.690000
5 1 2 0.000000 43.050000 17.530000 7.300000
6 1 1 0.000000 45.240000 18.060000 7.780000
19 2 1 0.000000 50.720000 25.560000 49.340000
20 2 2 0.000000 50.990000 23.790000 51.150000
21 2 2 0.000000 50.950000 21.930000 52.580000
22 2 2 0.000000 50.630000 20.120000 53.900000
23 2 2 0.000000 52.260000 19.310000 55.010000
24 2 1 0.000000 54.350000 18.330000 55.970000
37 3 1 0.000000 16.650000 56.750000 15.850000
38 3 2 0.000000 18.050000 57.210000 14.080000
39 3 2 0.000000 19.820000 0.480000 12.410000
40 3 2 0.000000 20.860000 2.430000 12.640000
41 3 2 0.000000 21.790000 4.040000 14.190000
42 3 1 0.000000 22.830000 5.620000 15.420000
55 4 1 0.000000 27.320000 22.760000 23.510000
56 4 2 0.000000 26.060000 22.980000 25.390000
57 4 2 0.000000 24.540000 24.450000 26.920000
58 4 2 0.000000 24.090000 26.240000 28.780000
59 4 2 0.000000 23.560000 27.780000 30.430000
60 4 1 0.000000 24.410000 27.570000 32.530000
73 5 1 0.000000 52.930000 50.480000 57.260000
74 5 2 0.000000 51.520000 52.530000 0.150000
75 5 2 0.000000 50.540000 54.630000 0.220000
76 5 2 0.000000 49.240000 56.770000 0.040000
77 5 2 0.000000 49.530000 0.290000 55.630000
78 5 1 0.000000 50.970000 0.410000 53.540000
91 6 1 0.000000 49.450000 41.610000 54.580000
92 6 2 0.000000 50.610000 40.430000 52.950000
93 6 2 0.000000 51.610000 39.390000 51.280000
94 6 2 0.000000 52.840000 37.910000 49.730000
95 6 2 0.000000 53.590000 36.330000 48.200000
96 6 1 0.000000 52.600000 34.420000 47.700000
109 7 1 0.000000 8.100000 3.120000 8.890000
110 7 2 0.000000 6.410000 1.770000 9.420000
111 7 2 0.000000 4.470000 1.610000 8.410000
112 7 2 0.000000 2.700000 3.530000 8.190000
113 7 2 0.000000 1.490000 5.430000 8.000000
114 7 1 0.000000 0.080000 7.420000 7.970000
127 8 1 0.000000 34.760000 14.140000 57.390000
128 8 2 0.000000 32.590000 13.060000 57.070000
129 8 2 0.000000 31.270000 13.200000 54.910000
130 8 2 0.000000 31.140000 12.680000 52.410000
131 8 2 0.000000 30.780000 12.010000 50.090000
132 8 1 0.000000 29.780000 10.520000 48.550000
145 9 1 0.000000 40.720000 42.560000 34.130000
146 9 2 0.000000 38.700000 42.080000 35.420000
147 9 2 0.000000 36.440000 41.110000 35.960000
148 9 2 0.000000 35.570000 39.370000 34.620000
149 9 2 0.000000 37.180000 38.300000 33.540000
150 9 1 0.000000 39.330000 37.480000 32.490000
163 10 1 0.000000 52.290000 6.070000 31.310000
164 10 2 0.000000 52.190000 7.080000 33.340000
165 10 2 0.000000 51.210000 8.310000 35.320000
166 10 2 0.000000 50.160000 9.420000 36.900000
167 10 2 0.000000 48.620000 11.000000 36.910000
168 10 1 0.000000 46.950000 10.890000 35.090000

Bonds

7 2 1 2
8 2 2 3
9 2 3 4
10 2 4 5
11 3 5 6
23 2 19 20
24 2 20 21
25 2 21 22
26 2 22 23
27 3 23 24
39 2 37 38
40 2 38 39
41 2 39 40
42 2 40 41
43 3 41 42
55 2 55 56
56 2 56 57
57 2 57 58
58 2 58 59
59 3 59 60
71 2 73 74
72 2 74 75
73 2 75 76
74 2 76 77
75 3 77 78
87 2 91 92
88 2 92 93
89 2 93 94
90 2 94 95
91 3 95 96
103 2 109 110
104 2 110 111
105 2 111 112
106 2 112 113
107 3 113 114
119 2 127 128
120 2 128 129
121 2 129 130
122 2 130 131
123 3 131 132
135 2 145 146
136 2 146 147
137 2 147 148
138 2 148 149
139 3 149 150
151 2 163 164
152 2 164 165
153 2 165 166
154 2 166 167
155 3 167 168
