LAMMPS (10 Dec 2025 - Development - patch_10Dec2025-120-ga51f9ba0e7-modified)
Reading data file ...
  orthogonal box = (0 0 0) to (57.5376 57.5376 57.5376)
  1 by 1 by 1 MPI processor grid
  reading atoms ...
  9000 atoms
  scanning bonds ...
  1 = max bonds/atom
  scanning angles ...
  1 = max angles/atom
  orthogonal box = (0 0 0) to (57.5376 57.5376 57.5376)
  1 by 1 by 1 MPI processor grid
  reading bonds ...
  8000 bonds
  reading angles ...
  5000 angles
Finding 1-2 1-3 1-4 neighbors ...
  special bond factors lj:    0        0        0
  special bond factors coul:  0        0        0
     2 = max # of 1-2 neighbors
     2 = max # of 1-3 neighbors
     4 = max # of 1-4 neighbors
     6 = max # of special neighbors
  special bonds CPU = 0.008 seconds
  read_data CPU = 0.377 seconds
WARNING: 3 of 1000 force values in table ENTRY are inconsistent with -dE/dr.
WARNING:  Should only be flagged at inflection points (src/pair_table.cpp:469)
WARNING: 6 of 1000 force values in table ENTRY are inconsistent with -dE/dr.
WARNING:  Should only be flagged at inflection points (src/pair_table.cpp:469)
6000 atoms in group at_atoms
3000 atoms in group cg_atoms
Generated 0 of 6 mixed pair_coeff terms from geometric mixing rule
Neighbor list info ...
  update: every = 1 steps, delay = 0 steps, check = yes
  max neighbors/atom: 2000, page size: 100000
  master list distance cutoff = 16
  ghost atom cutoff = 16
  binsize = 8, bins = 8 8 8
  1 neighbor lists, perpetual/occasional/extra = 1 0 0
  (1) pair backmap, perpetual
      attributes: half, newton on
      pair build: half/bin/newton
      stencil: half/bin/3d
      bin: standard
Setting up Verlet run ...
  Unit style    : real
  Current step  : 0
  Time step     : 0.1
WARNING: Inconsistent image flags
For more information see https://docs.lammps.org/err0027 (src/domain.cpp:1052)
fix backmap: 3000 bead mappings, cg_types={1,2}, alpha=0.0001, lambda0=0
Per MPI rank memory allocation (min/avg/max) = 28.11 | 28.11 | 28.11 Mbytes
   Step          Temp          PotEng         KinEng         TotEng         Press
         0   0              3235.4021      0              3235.4021     -3775.6548
       500   13.110849      1791.2247      351.68948      2142.9142      4260.092
      1000   41.942303      1017.6605      1125.0733      2142.7338      1135.2613
      1500   64.739455      405.99878      1736.5912      2142.59       -2521.7701
      2000   68.252176      311.74796      1830.8175      2142.5655      9712.5727
Loop time of 165.454 on 1 procs for 2000 steps with 9000 atoms

Performance: 0.104 ns/day, 229.797 hours/ns, 12.088 timesteps/s, 108.792 katom-step/s
86.6% CPU use with 1 MPI tasks x no OpenMP threads

MPI task timing breakdown:
Section |  min time  |  avg time  |  max time  |%varavg| %total
---------------------------------------------------------------
Pair    | 161.52     | 161.52     | 161.52     |   0.0 | 97.62
Bond    | 1.1634     | 1.1634     | 1.1634     |   0.0 |  0.70
Neigh   | 0          | 0          | 0          |   0.0 |  0.00
Comm    | 1.0584     | 1.0584     | 1.0584     |   0.0 |  0.64
Output  | 0.00045572 | 0.00045572 | 0.00045572 |   0.0 |  0.00
Modify  | 1.4036     | 1.4036     | 1.4036     |   0.0 |  0.85
Other   |            | 0.3105     |            |       |  0.19

Nlocal:           9000 ave        9000 max        9000 min
Histogram: 1 0 0 0 0 0 0 0 0 0
Nghost:          24911 ave       24911 max       24911 min
Histogram: 1 0 0 0 0 0 0 0 0 0
Neighs:    2.00385e+06 ave 2.00385e+06 max 2.00385e+06 min
Histogram: 1 0 0 0 0 0 0 0 0 0

Total # of neighbors = 2003853
Ave neighs/atom = 222.65033
Ave special neighs/atom = 4.6666667
Neighbor list builds = 0
Dangerous builds = 0
Generated 0 of 6 mixed pair_coeff terms from geometric mixing rule
Setting up Verlet run ...
  Unit style    : real
  Current step  : 2000
  Time step     : 0.1
WARNING: Inconsistent image flags
For more information see https://docs.lammps.org/err0027 (src/domain.cpp:1052)
fix backmap: 3000 bead mappings, cg_types={1,2}, alpha=0.0001, lambda0=0
Per MPI rank memory allocation (min/avg/max) = 28.11 | 28.11 | 28.11 Mbytes
