LAMMPS (30 Mar 2026)
# Quick validation: backmapping phases 0-1 with reduced steps
# Then extract AT frame and run short pure AT production

units real
atom_style full
boundary p p p

read_data dodecane.data
Reading data file ...
  orthogonal box = (0 0 0) to (57.5376 57.5376 57.5376)
  1 by 1 by 1 MPI processor grid
  reading atoms ...
  9000 atoms
  scanning bonds ...
  1 = max bonds/atom
  scanning angles ...
  1 = max angles/atom
  orthogonal box = (0 0 0) to (57.5376 57.5376 57.5376)
  1 by 1 by 1 MPI processor grid
  reading bonds ...
  8000 bonds
  reading angles ...
  5000 angles
Finding 1-2 1-3 1-4 neighbors ...
  special bond factors lj:    0        0        0
  special bond factors coul:  0        0        0
     2 = max # of 1-2 neighbors
     2 = max # of 1-3 neighbors
     4 = max # of 1-4 neighbors
     6 = max # of special neighbors
  special bonds CPU = 0.003 seconds
  read_data CPU = 0.084 seconds

pair_style backmap 14.00 lj/cut/coul/cut 14.00 9.00 14.00 table linear 1000
pair_coeff 1 1 cg table_A_A.table ENTRY
pair_coeff 1 2 cg table_A_B.table ENTRY
WARNING: 3 of 1000 force values in table ENTRY are inconsistent with -dE/dr.
WARNING:  Should only be flagged at inflection points (src/pair_table.cpp:469)
pair_coeff 1 3 none
pair_coeff 1 4 none
pair_coeff 2 2 cg table_B_B.table ENTRY
WARNING: 6 of 1000 force values in table ENTRY are inconsistent with -dE/dr.
WARNING:  Should only be flagged at inflection points (src/pair_table.cpp:469)
pair_coeff 2 3 none
pair_coeff 2 4 none
pair_coeff 3 3 atomistic 0.207266 3.748000
pair_coeff 3 4 atomistic 0.156387 3.826500
pair_coeff 4 4 atomistic 0.117997 3.905000

bond_style hybrid harmonic backmap/harmonic backmap/table linear 1000
bond_coeff 1 harmonic 800.000883 1.530000
bond_coeff 2 backmap/table cg table_b1.table ENTRY
bond_coeff 3 backmap/table cg table_b1.table ENTRY
bond_coeff 4 backmap/harmonic at 800.000883 1.530000

angle_style backmap/harmonic
angle_coeff 1 at 126.673180 111.0000

special_bonds lj 0.0 0.0 0.0 coul 0.0 0.0 0.0

group at_atoms type 3 4
6000 atoms in group at_atoms
group cg_atoms type 1 2
3000 atoms in group cg_atoms

neigh_modify delay 0 every 1 check yes

# Phase 0: Gentle AT bond relaxation with CG atoms frozen.
fix freeze cg_atoms setforce 0.0 0.0 0.0
fix relax at_atoms nve/limit 0.05
fix bm all backmap cg_type 1 2 alpha 0.0001 lambda0 0.0 nonuniform no

timestep 0.10
thermo 100

run 200
Generated 0 of 6 mixed pair_coeff terms from geometric mixing rule
Neighbor list info ...
  update: every = 1 steps, delay = 0 steps, check = yes
  max neighbors/atom: 2000, page size: 100000
  master list distance cutoff = 16
  ghost atom cutoff = 16
  binsize = 8, bins = 8 8 8
  1 neighbor lists, perpetual/occasional/extra = 1 0 0
  (1) pair backmap, perpetual
      attributes: half, newton on
      pair build: half/bin/newton
      stencil: half/bin/3d
      bin: standard
WARNING: Inconsistent image flags
For more information see https://docs.lammps.org/err0027 (src/domain.cpp:1052)
fix backmap: 3000 bead mappings, cg_types={1,2}, alpha=0.0001, lambda0=0
Per MPI rank memory allocation (min/avg/max) = 28.11 | 28.11 | 28.11 Mbytes
   Step          Temp          E_pair         E_mol          TotEng         Press
         0   0             -298.79305      3534.1952      3235.4021     -3775.6548
       100   0.56293458    -298.01988      3519.0913      3236.1718      5218.7302
       200   2.2319292     -298.01988      3474.3113      3236.1614     -3579.0506
Loop time of 5.5604 on 1 procs for 200 steps with 9000 atoms

Performance: 0.311 ns/day, 77.228 hours/ns, 35.969 timesteps/s, 323.718 katom-step/s
96.3% CPU use with 1 MPI tasks x no OpenMP threads

MPI task timing breakdown:
Section |  min time  |  avg time  |  max time  |%varavg| %total
---------------------------------------------------------------
Pair    | 5.4231     | 5.4231     | 5.4231     |   0.0 | 97.53
Bond    | 0.05029    | 0.05029    | 0.05029    |   0.0 |  0.90
Neigh   | 0          | 0          | 0          |   0.0 |  0.00
Comm    | 0.033287   | 0.033287   | 0.033287   |   0.0 |  0.60
Output  | 7.7631e-05 | 7.7631e-05 | 7.7631e-05 |   0.0 |  0.00
Modify  | 0.040724   | 0.040724   | 0.040724   |   0.0 |  0.73
Other   |            | 0.01294    |            |       |  0.23

Nlocal:           9000 ave        9000 max        9000 min
Histogram: 1 0 0 0 0 0 0 0 0 0
Nghost:          24911 ave       24911 max       24911 min
Histogram: 1 0 0 0 0 0 0 0 0 0
Neighs:    2.00385e+06 ave 2.00385e+06 max 2.00385e+06 min
Histogram: 1 0 0 0 0 0 0 0 0 0

Total # of neighbors = 2003853
Ave neighs/atom = 222.65033
Ave special neighs/atom = 4.6666667
Neighbor list builds = 0
Dangerous builds = 0
