LAMMPS (30 Mar 2026)
# Minimal test: just delete CG atoms after Phase 0
units real
atom_style full
boundary p p p

read_data dodecane.data
Reading data file ...
  orthogonal box = (0 0 0) to (57.5376 57.5376 57.5376)
  1 by 1 by 1 MPI processor grid
  reading atoms ...
  9000 atoms
  scanning bonds ...
  1 = max bonds/atom
  scanning angles ...
  1 = max angles/atom
  orthogonal box = (0 0 0) to (57.5376 57.5376 57.5376)
  1 by 1 by 1 MPI processor grid
  reading bonds ...
  8000 bonds
  reading angles ...
  5000 angles
Finding 1-2 1-3 1-4 neighbors ...
  special bond factors lj:    0        0        0
  special bond factors coul:  0        0        0
     2 = max # of 1-2 neighbors
     2 = max # of 1-3 neighbors
     4 = max # of 1-4 neighbors
     6 = max # of special neighbors
  special bonds CPU = 0.003 seconds
  read_data CPU = 0.074 seconds

pair_style backmap 14.00 lj/cut/coul/cut 14.00 9.00 14.00 table linear 1000
pair_coeff 1 1 cg table_A_A.table ENTRY
pair_coeff 1 2 cg table_A_B.table ENTRY
WARNING: 3 of 1000 force values in table ENTRY are inconsistent with -dE/dr.
WARNING:  Should only be flagged at inflection points (src/pair_table.cpp:469)
pair_coeff 1 3 none
pair_coeff 1 4 none
pair_coeff 2 2 cg table_B_B.table ENTRY
WARNING: 6 of 1000 force values in table ENTRY are inconsistent with -dE/dr.
WARNING:  Should only be flagged at inflection points (src/pair_table.cpp:469)
pair_coeff 2 3 none
pair_coeff 2 4 none
pair_coeff 3 3 atomistic 0.207266 3.748000
pair_coeff 3 4 atomistic 0.156387 3.826500
pair_coeff 4 4 atomistic 0.117997 3.905000

bond_style hybrid harmonic backmap/harmonic backmap/table linear 1000
bond_coeff 1 harmonic 800.000883 1.530000
bond_coeff 2 backmap/table cg table_b1.table ENTRY
bond_coeff 3 backmap/table cg table_b1.table ENTRY
bond_coeff 4 backmap/harmonic at 800.000883 1.530000

angle_style backmap/harmonic
angle_coeff 1 at 126.673180 111.0000

special_bonds lj 0.0 0.0 0.0 coul 0.0 0.0 0.0

group at_atoms type 3 4
6000 atoms in group at_atoms
group cg_atoms type 1 2
3000 atoms in group cg_atoms

neigh_modify delay 0 every 1 check yes

# Phase 0: Short relaxation with CG frozen
fix freeze cg_atoms setforce 0.0 0.0 0.0
fix relax at_atoms nve/limit 0.05
fix bm all backmap cg_type 1 2 alpha 0.0001 lambda0 0.0 nonuniform no

timestep 0.10
thermo 50

run 100
Generated 0 of 6 mixed pair_coeff terms from geometric mixing rule
Neighbor list info ...
  update: every = 1 steps, delay = 0 steps, check = yes
  max neighbors/atom: 2000, page size: 100000
  master list distance cutoff = 16
  ghost atom cutoff = 16
  binsize = 8, bins = 8 8 8
  1 neighbor lists, perpetual/occasional/extra = 1 0 0
  (1) pair backmap, perpetual
      attributes: half, newton on
      pair build: half/bin/newton
      stencil: half/bin/3d
      bin: standard
WARNING: Inconsistent image flags
For more information see https://docs.lammps.org/err0027 (src/domain.cpp:1052)
fix backmap: 3000 bead mappings, cg_types={1,2}, alpha=0.0001, lambda0=0
Per MPI rank memory allocation (min/avg/max) = 28.11 | 28.11 | 28.11 Mbytes
   Step          Temp          E_pair         E_mol          TotEng         Press
         0   0             -298.79305      3534.1952      3235.4021     -3775.6548
        50   90.866511      630.59334      1096.1904      4164.2151      515.82251
       100   0.56293458     630.59334      3519.0913      4164.785       4224.5114
Loop time of 2.84339 on 1 procs for 100 steps with 9000 atoms

Performance: 0.304 ns/day, 78.983 hours/ns, 35.169 timesteps/s, 316.523 katom-step/s
96.9% CPU use with 1 MPI tasks x no OpenMP threads

MPI task timing breakdown:
Section |  min time  |  avg time  |  max time  |%varavg| %total
---------------------------------------------------------------
Pair    | 2.7887     | 2.7887     | 2.7887     |   0.0 | 98.08
Bond    | 0.02081    | 0.02081    | 0.02081    |   0.0 |  0.73
Neigh   | 0          | 0          | 0          |   0.0 |  0.00
Comm    | 0.013251   | 0.013251   | 0.013251   |   0.0 |  0.47
Output  | 5.0636e-05 | 5.0636e-05 | 5.0636e-05 |   0.0 |  0.00
Modify  | 0.015757   | 0.015757   | 0.015757   |   0.0 |  0.55
Other   |            | 0.00478    |            |       |  0.17

Nlocal:           9000 ave        9000 max        9000 min
Histogram: 1 0 0 0 0 0 0 0 0 0
Nghost:          24911 ave       24911 max       24911 min
Histogram: 1 0 0 0 0 0 0 0 0 0
Neighs:      1.557e+06 ave   1.557e+06 max   1.557e+06 min
Histogram: 1 0 0 0 0 0 0 0 0 0

Total # of neighbors = 1557000
Ave neighs/atom = 173
Ave special neighs/atom = 4.6666667
Neighbor list builds = 0
Dangerous builds = 0

print "Phase 0 done"
Phase 0 done

# Unfix everything before deleting
unfix relax
unfix freeze
unfix bm

print "All unfixed"
All unfixed

# Delete CG atoms
delete_atoms group cg_atoms
Deleted 3000 atoms, new total = 6000

print "CG deleted, now 6000 atoms remain"
CG deleted, now 6000 atoms remain

# Switch to pure AT
pair_style lj/cut 14.00
pair_modify shift yes
pair_coeff * * 0.1 3.5
pair_coeff 3 3 0.207266 3.748000
pair_coeff 3 4 0.156387 3.826500
pair_coeff 4 4 0.117997 3.905000

bond_style harmonic
bond_coeff 1 800.000883 1.530000
bond_coeff 2 800.000883 1.530000
bond_coeff 3 800.000883 1.530000
bond_coeff 4 800.000883 1.530000

angle_style harmonic
angle_coeff 1 126.673180 111.0000

special_bonds lj 0.0 0.0 0.0 coul 0.0 0.0 0.0

group at_atoms type 3 4
6000 atoms in group at_atoms
fix nve_all at_atoms nve

neigh_modify delay 0 every 1 check yes
timestep 1.00
thermo 50

run 50
Generated 0 of 6 mixed pair_coeff terms from geometric mixing rule
Neighbor list info ...
  update: every = 1 steps, delay = 0 steps, check = yes
  max neighbors/atom: 2000, page size: 100000
  master list distance cutoff = 16
  ghost atom cutoff = 16
  binsize = 8, bins = 8 8 8
  1 neighbor lists, perpetual/occasional/extra = 1 0 0
  (1) pair lj/cut, perpetual
      attributes: half, newton on
      pair build: half/bin/newton
      stencil: half/bin/3d
      bin: standard
WARNING: Inconsistent image flags
For more information see https://docs.lammps.org/err0027 (src/domain.cpp:1052)
Per MPI rank memory allocation (min/avg/max) = 26.74 | 26.74 | 26.74 Mbytes
   Step          Temp          E_pair         E_mol          TotEng         Press
       100   0.84444879     2.2124672e+19  4684313.9      2.2124672e+19  3.1857062e+19
ERROR on proc 0: Bond atoms 7739 7740 missing on proc 0 at step 101
For more information see https://docs.lammps.org/err0005 (src/ntopo_bond_all.cpp:59)
