LAMMPS data file for backmapping — generated by backmap-prep

3120 atoms
3100 bonds
6000 angles
0 dihedrals
0 impropers

5 atom types
5 bond types
5 angle types
0 dihedral types
0 improper types

0.0 62.004000 xlo xhi
0.0 62.004000 ylo yhi
0.0 62.004000 zlo zhi

Masses

1 141.277997 # A (CG)
2 140.269997 # B (CG)
3 12.011000 # opls_136
4 1.008000 # opls_140
5 12.011000 # opls_135

Atoms # full

1 1 1 0.000000 25.530000 58.420000 35.780000
2 1 2 0.000000 22.120000 53.400000 44.710000
3 1 2 0.000000 20.930000 41.180000 45.710000
4 1 2 0.000000 13.350000 41.170000 54.140000
5 1 2 0.000000 15.280000 30.540000 58.810000
6 1 2 0.000000 12.490000 24.970000 49.900000
7 1 2 0.000000 16.990000 15.540000 48.810000
8 1 2 0.000000 5.310000 18.620000 46.250000
9 1 2 0.000000 7.410000 11.820000 52.970000
10 1 1 0.000000 -2.240000 12.790000 48.950000
11 1 3 -0.120000 25.530000 58.420000 35.780000
12 1 5 -0.180000 26.210000 57.220000 35.120000
13 1 4 0.060000 24.560000 58.500000 35.320000
14 1 4 0.060000 26.000000 59.300000 35.600000
15 1 4 0.060000 25.350000 56.510000 35.170000
16 1 4 0.060000 27.160000 56.920000 35.510000
17 1 4 0.060000 26.440000 57.510000 34.150000
18 1 3 -0.120000 25.180000 58.060000 37.180000
19 1 3 -0.120000 24.180000 59.100000 37.870000
20 1 4 0.060000 26.070000 57.930000 37.860000
21 1 4 0.060000 24.730000 57.030000 37.320000
22 1 4 0.060000 23.360000 59.290000 37.170000
23 1 4 0.060000 24.790000 60.010000 38.150000
24 1 3 -0.120000 23.470000 58.520000 39.110000
25 1 3 -0.120000 24.350000 58.130000 40.310000
26 1 4 0.060000 22.920000 57.660000 38.860000
27 1 4 0.060000 22.850000 59.220000 39.630000
28 1 4 0.060000 25.280000 57.670000 39.830000
29 1 4 0.060000 23.840000 57.290000 40.880000
30 1 3 -0.120000 24.630000 59.250000 41.280000
31 1 3 -0.120000 25.600000 58.790000 42.320000
32 1 4 0.060000 23.670000 59.550000 41.690000
33 1 4 0.060000 25.010000 59.960000 40.650000
34 1 4 0.060000 26.400000 58.370000 41.820000
35 1 4 0.060000 25.070000 58.090000 42.970000
36 1 3 -0.120000 25.920000 59.890000 43.330000
37 1 3 -0.120000 26.770000 59.370000 44.550000
38 1 4 0.060000 24.930000 60.140000 43.790000
39 1 4 0.060000 26.190000 60.820000 42.910000
40 1 4 0.060000 27.680000 58.960000 44.350000
41 1 4 0.060000 26.260000 58.500000 45.040000
42 1 3 -0.120000 23.470000 55.370000 54.550000
43 1 3 -0.120000 24.550000 55.110000 55.480000
44 1 4 0.060000 22.390000 55.410000 54.980000
45 1 4 0.060000 23.570000 56.260000 53.940000
46 1 4 0.060000 25.320000 54.480000 55.160000
47 1 4 0.060000 24.070000 54.340000 56.130000
48 1 3 -0.120000 25.090000 56.310000 56.240000
49 1 3 -0.120000 25.460000 57.640000 55.410000
50 1 4 0.060000 25.920000 55.910000 56.750000
51 1 4 0.060000 24.430000 56.530000 57.090000
52 1 4 0.060000 24.540000 58.250000 55.120000
53 1 4 0.060000 25.850000 57.270000 54.470000
54 1 3 -0.120000 26.390000 58.610000 56.080000
55 1 3 -0.120000 26.640000 59.730000 55.000000
56 1 4 0.060000 27.300000 58.120000 56.350000
57 1 4 0.060000 26.000000 59.030000 56.960000
58 1 4 0.060000 25.650000 60.200000 54.790000
59 1 4 0.060000 27.020000 59.210000 54.110000
60 1 3 -0.120000 27.670000 60.760000 55.550000
61 1 3 -0.120000 27.490000 62.160000 55.040000
62 1 4 0.060000 28.510000 60.220000 55.140000
63 1 4 0.060000 27.750000 60.640000 56.580000
64 1 4 0.060000 26.480000 62.460000 55.430000
65 1 4 0.060000 27.510000 62.200000 54.020000
66 1 3 -0.120000 28.400000 63.200000 55.750000
67 1 3 -0.120000 28.860000 64.340000 54.890000
68 1 4 0.060000 29.240000 62.690000 56.140000
69 1 4 0.060000 27.890000 63.660000 56.610000
70 1 4 0.060000 28.000000 65.090000 54.910000
71 1 4 0.060000 28.880000 64.090000 53.770000
72 1 3 -0.120000 28.920000 52.860000 56.420000
73 1 3 -0.120000 28.640000 54.280000 56.810000
74 1 4 0.060000 29.790000 52.850000 55.730000
75 1 4 0.060000 29.290000 52.230000 57.230000
76 1 4 0.060000 29.350000 54.820000 57.530000
77 1 4 0.060000 27.720000 54.260000 57.410000
78 1 3 -0.120000 28.610000 55.400000 55.680000
79 1 3 -0.120000 28.060000 56.700000 56.220000
80 1 4 0.060000 27.810000 55.270000 54.870000
81 1 4 0.060000 29.620000 55.500000 55.270000
82 1 4 0.060000 28.590000 56.980000 57.180000
83 1 4 0.060000 27.010000 56.510000 56.590000
84 1 3 -0.120000 28.000000 57.850000 55.260000
85 1 3 -0.120000 28.410000 59.110000 55.970000
86 1 4 0.060000 27.060000 58.010000 54.930000
87 1 4 0.060000 28.710000 57.570000 54.400000
88 1 4 0.060000 29.340000 58.840000 56.490000
89 1 4 0.060000 27.770000 59.290000 56.870000
90 1 3 -0.120000 28.670000 60.300000 55.000000
91 1 3 -0.120000 29.220000 61.610000 55.760000
92 1 4 0.060000 27.670000 60.440000 54.520000
93 1 4 0.060000 29.400000 60.020000 54.300000
94 1 4 0.060000 30.210000 61.570000 56.310000
95 1 4 0.060000 28.410000 61.830000 56.580000
96 1 3 -0.120000 29.290000 62.890000 54.960000
97 1 3 -0.120000 30.470000 63.110000 54.030000
98 1 4 0.060000 29.230000 63.760000 55.620000
99 1 4 0.060000 28.330000 62.870000 54.500000
100 1 4 0.060000 30.450000 64.190000 53.770000
101 1 4 0.060000 30.360000 62.510000 53.150000
102 1 3 -0.120000 24.280000 62.830000 62.970000
103 1 3 -0.120000 25.400000 63.170000 61.980000
104 1 4 0.060000 24.240000 61.750000 63.140000
105 1 4 0.060000 24.550000 63.230000 63.990000
106 1 4 0.060000 25.280000 64.230000 61.730000
107 1 4 0.060000 25.170000 62.630000 61.030000
108 1 3 -0.120000 26.820000 62.760000 62.450000
109 1 3 -0.120000 28.020000 63.290000 61.630000
110 1 4 0.060000 26.870000 61.680000 62.410000
111 1 4 0.060000 26.870000 62.850000 63.530000
112 1 4 0.060000 28.050000 64.370000 61.730000
113 1 4 0.060000 27.800000 62.950000 60.610000
114 1 3 -0.120000 29.350000 62.810000 62.150000
115 1 3 -0.120000 29.750000 63.580000 63.410000
116 1 4 0.060000 30.130000 62.990000 61.420000
117 1 4 0.060000 29.450000 61.760000 62.400000
118 1 4 0.060000 28.960000 63.490000 64.030000
119 1 4 0.060000 29.760000 64.580000 63.130000
120 1 3 -0.120000 31.160000 63.180000 63.910000
121 1 3 -0.120000 32.100000 63.050000 62.760000
122 1 4 0.060000 31.120000 62.160000 64.330000
123 1 4 0.060000 31.550000 63.840000 64.630000
124 1 4 0.060000 32.040000 63.930000 62.070000
125 1 4 0.060000 31.980000 62.180000 62.080000
126 1 3 -0.120000 33.510000 63.110000 63.210000
127 1 3 -0.120000 34.420000 62.820000 62.080000
128 1 4 0.060000 33.520000 62.340000 64.030000
129 1 4 0.060000 33.600000 64.080000 63.800000
130 1 4 0.060000 34.110000 63.400000 61.260000
131 1 4 0.060000 34.410000 61.810000 61.730000
132 1 3 -0.120000 37.840000 52.460000 67.100000
133 1 3 -0.120000 38.700000 52.150000 65.910000
134 1 4 0.060000 38.330000 51.980000 67.960000
135 1 4 0.060000 38.020000 53.510000 67.300000
136 1 4 0.060000 38.780000 53.100000 65.370000
137 1 4 0.060000 38.200000 51.530000 65.280000
138 1 3 -0.120000 40.030000 51.490000 66.200000
139 1 3 -0.120000 40.800000 51.210000 64.880000
140 1 4 0.060000 39.780000 50.530000 66.680000
141 1 4 0.060000 40.590000 52.230000 66.790000
142 1 4 0.060000 40.210000 50.900000 64.010000
143 1 4 0.060000 41.350000 50.250000 65.150000
144 1 3 -0.120000 41.870000 52.320000 64.540000
145 1 3 -0.120000 42.760000 52.020000 63.300000
146 1 4 0.060000 42.640000 52.510000 65.350000
147 1 4 0.060000 41.320000 53.290000 64.500000
148 1 4 0.060000 43.050000 50.970000 63.360000
149 1 4 0.060000 43.710000 52.640000 63.390000
150 1 3 -0.120000 42.160000 52.350000 62.000000
151 1 3 -0.120000 42.880000 51.720000 60.790000
152 1 4 0.060000 42.310000 53.390000 61.800000
153 1 4 0.060000 41.150000 51.970000 61.770000
154 1 4 0.060000 42.650000 50.680000 60.920000
155 1 4 0.060000 44.000000 51.730000 60.910000
156 1 3 -0.120000 42.540000 52.260000 59.470000
157 1 3 -0.120000 43.290000 51.530000 58.310000
158 1 4 0.060000 42.940000 53.300000 59.390000
159 1 4 0.060000 41.460000 52.320000 59.170000
160 1 4 0.060000 44.360000 51.130000 58.680000
161 1 4 0.060000 43.520000 52.300000 57.610000
162 1 3 -0.120000 39.560000 44.910000 48.710000
163 1 3 -0.120000 40.130000 44.410000 47.370000
164 1 4 0.060000 38.530000 45.380000 48.540000
165 1 4 0.060000 39.370000 44.020000 49.320000
166 1 4 0.060000 40.090000 45.300000 46.660000
167 1 4 0.060000 39.550000 43.540000 46.880000
168 1 3 -0.120000 41.700000 44.130000 47.370000
169 1 3 -0.120000 42.150000 43.620000 46.020000
170 1 4 0.060000 41.940000 43.390000 48.150000
171 1 4 0.060000 42.220000 45.070000 47.710000
172 1 4 0.060000 41.930000 44.350000 45.210000
173 1 4 0.060000 41.650000 42.730000 45.680000
174 1 3 -0.120000 43.630000 43.180000 46.120000
175 1 3 -0.120000 44.100000 43.040000 44.690000
176 1 4 0.060000 43.660000 42.210000 46.540000
177 1 4 0.060000 44.260000 43.820000 46.730000
178 1 4 0.060000 43.950000 44.020000 44.270000
179 1 4 0.060000 43.370000 42.410000 44.130000
180 1 3 -0.120000 45.330000 42.230000 44.490000
181 1 3 -0.120000 45.850000 42.350000 43.100000
182 1 4 0.060000 45.120000 41.180000 44.770000
183 1 4 0.060000 46.020000 42.490000 45.220000
184 1 4 0.060000 46.050000 43.440000 42.970000
185 1 4 0.060000 45.000000 42.240000 42.410000
186 1 3 -0.120000 47.140000 41.500000 42.850000
187 1 3 -0.120000 46.890000 39.900000 42.570000
188 1 4 0.060000 48.010000 41.810000 43.490000
189 1 4 0.060000 47.570000 41.940000 41.940000
190 1 4 0.060000 46.150000 39.950000 41.760000
191 1 4 0.060000 46.530000 39.400000 43.500000
192 1 3 -0.120000 52.630000 29.730000 40.970000
193 1 3 -0.120000 52.520000 28.250000 40.600000
194 1 4 0.060000 53.460000 29.750000 41.730000
195 1 4 0.060000 52.970000 30.230000 40.120000
196 1 4 0.060000 51.630000 28.180000 39.940000
197 1 4 0.060000 52.260000 27.650000 41.560000
198 1 3 -0.120000 53.800000 27.620000 39.970000
199 1 3 -0.120000 53.640000 26.250000 39.410000
200 1 4 0.060000 54.430000 27.600000 40.850000
201 1 4 0.060000 54.000000 28.260000 39.080000
202 1 4 0.060000 52.820000 26.270000 38.740000
203 1 4 0.060000 53.410000 25.610000 40.260000
204 1 3 -0.120000 54.830000 25.750000 38.640000
205 1 3 -0.120000 54.580000 24.490000 37.750000
206 1 4 0.060000 55.460000 25.560000 39.440000
207 1 4 0.060000 55.420000 26.410000 38.130000
208 1 4 0.060000 55.620000 24.380000 37.300000
209 1 4 0.060000 53.940000 24.790000 36.940000
210 1 3 -0.120000 54.020000 23.270000 38.560000
211 1 3 -0.120000 53.490000 22.090000 37.680000
212 1 4 0.060000 53.200000 23.600000 39.020000
213 1 4 0.060000 54.670000 23.000000 39.380000
214 1 4 0.060000 54.180000 21.960000 36.860000
215 1 4 0.060000 52.600000 22.620000 37.420000
216 1 3 -0.120000 53.140000 20.680000 38.240000
217 1 3 -0.120000 51.970000 20.800000 39.250000
218 1 4 0.060000 54.050000 20.340000 38.650000
219 1 4 0.060000 52.950000 19.970000 37.420000
220 1 4 0.060000 51.350000 21.700000 39.040000
221 1 4 0.060000 52.500000 21.090000 40.190000
222 1 3 -0.120000 39.360000 22.690000 36.720000
223 1 3 -0.120000 39.870000 21.400000 37.330000
224 1 4 0.060000 39.150000 22.320000 35.770000
225 1 4 0.060000 38.450000 23.080000 37.310000
226 1 4 0.060000 39.060000 20.650000 37.380000
227 1 4 0.060000 40.150000 21.590000 38.310000
228 1 3 -0.120000 41.100000 20.820000 36.600000
229 1 3 -0.120000 41.680000 19.400000 36.860000
230 1 4 0.060000 41.970000 21.390000 36.930000
231 1 4 0.060000 40.970000 20.910000 35.530000
232 1 4 0.060000 41.460000 19.120000 37.870000
233 1 4 0.060000 42.760000 19.500000 36.620000
234 1 3 -0.120000 40.950000 18.290000 36.090000
235 1 3 -0.120000 41.670000 16.910000 36.230000
236 1 4 0.060000 40.670000 18.560000 35.070000
237 1 4 0.060000 39.960000 18.150000 36.560000
238 1 4 0.060000 41.080000 16.060000 36.460000
239 1 4 0.060000 42.350000 16.970000 37.080000
240 1 3 -0.120000 42.630000 16.610000 35.140000
241 1 3 -0.120000 43.860000 17.620000 35.020000
242 1 4 0.060000 42.140000 16.810000 34.150000
243 1 4 0.060000 43.050000 15.610000 35.360000
244 1 4 0.060000 44.470000 17.830000 36.000000
245 1 4 0.060000 43.420000 18.550000 34.640000
246 1 3 -0.120000 44.860000 17.110000 33.980000
247 1 3 -0.120000 45.890000 16.130000 34.610000
248 1 4 0.060000 45.430000 17.830000 33.470000
249 1 4 0.060000 44.310000 16.480000 33.220000
250 1 4 0.060000 45.190000 15.490000 35.170000
251 1 4 0.060000 46.450000 16.660000 35.410000
252 1 3 -0.120000 48.880000 8.510000 40.400000
253 1 3 -0.120000 49.590000 7.400000 41.220000
254 1 4 0.060000 49.590000 8.930000 39.720000
255 1 4 0.060000 48.100000 8.070000 39.750000
256 1 4 0.060000 48.910000 7.060000 41.920000
257 1 4 0.060000 50.390000 7.890000 41.760000
258 1 3 -0.120000 50.280000 6.360000 40.370000
259 1 3 -0.120000 51.490000 5.690000 40.880000
260 1 4 0.060000 50.470000 6.550000 39.310000
261 1 4 0.060000 49.520000 5.530000 40.450000
262 1 4 0.060000 52.140000 6.470000 41.320000
263 1 4 0.060000 51.920000 5.090000 40.000000
264 1 3 -0.120000 51.230000 4.650000 42.020000
265 1 3 -0.120000 52.610000 4.090000 42.230000
266 1 4 0.060000 50.690000 3.790000 41.750000
267 1 4 0.060000 50.870000 5.130000 42.840000
268 1 4 0.060000 53.420000 4.770000 42.530000
269 1 4 0.060000 53.000000 3.530000 41.360000
270 1 3 -0.120000 52.570000 2.950000 43.320000
271 1 3 -0.120000 53.880000 2.290000 43.680000
272 1 4 0.060000 51.740000 2.290000 43.000000
273 1 4 0.060000 52.320000 3.460000 44.200000
274 1 4 0.060000 54.450000 3.030000 44.090000
275 1 4 0.060000 54.430000 2.060000 42.740000
276 1 3 -0.120000 53.750000 0.980000 44.670000
277 1 3 -0.120000 55.230000 0.880000 45.270000
278 1 4 0.060000 53.470000 0.180000 44.000000
279 1 4 0.060000 52.900000 1.020000 45.430000
280 1 4 0.060000 55.250000 1.580000 46.090000
281 1 4 0.060000 55.970000 1.230000 44.590000
282 1 3 -0.120000 47.340000 -8.220000 44.240000
283 1 5 -0.180000 46.680000 -9.660000 44.300000
284 1 4 0.060000 47.730000 -8.090000 45.280000
285 1 4 0.060000 48.270000 -8.590000 43.590000
286 1 4 0.060000 46.540000 -10.010000 43.290000
287 1 4 0.060000 45.650000 -9.760000 44.850000
288 1 4 0.060000 47.330000 -10.510000 44.850000
289 1 3 -0.120000 47.430000 -5.960000 42.830000
290 1 3 -0.120000 46.550000 -7.060000 43.560000
291 1 4 0.060000 48.240000 -5.540000 43.430000
292 1 4 0.060000 48.040000 -6.420000 42.000000
293 1 4 0.060000 45.890000 -7.500000 42.770000
294 1 4 0.060000 45.990000 -6.550000 44.320000
295 1 3 -0.120000 47.290000 -4.300000 40.820000
296 1 3 -0.120000 46.610000 -4.920000 42.030000
297 1 4 0.060000 48.280000 -3.980000 41.080000
298 1 4 0.060000 47.380000 -5.070000 40.040000
299 1 4 0.060000 45.630000 -5.180000 41.680000
300 1 4 0.060000 46.340000 -4.080000 42.710000
301 1 3 -0.120000 46.660000 -1.890000 41.070000
302 1 3 -0.120000 46.670000 -3.120000 40.230000
303 1 4 0.060000 46.420000 -2.090000 42.100000
304 1 4 0.060000 47.720000 -1.710000 41.230000
305 1 4 0.060000 47.250000 -2.830000 39.370000
306 1 4 0.060000 45.670000 -3.280000 39.780000
307 1 3 -0.120000 46.030000 0.440000 41.620000
308 1 3 -0.120000 46.010000 -0.590000 40.500000
309 1 4 0.060000 45.250000 0.150000 42.330000
310 1 4 0.060000 47.020000 0.520000 42.110000
311 1 4 0.060000 46.650000 -0.270000 39.720000
312 1 4 0.060000 44.910000 -0.590000 40.220000
313 2 1 0.000000 33.810000 10.900000 32.290000
314 2 2 0.000000 31.270000 21.900000 30.430000
315 2 2 0.000000 39.390000 27.110000 36.900000
316 2 2 0.000000 45.750000 24.910000 27.290000
317 2 2 0.000000 41.580000 25.230000 18.560000
318 2 2 0.000000 33.080000 28.980000 26.670000
319 2 2 0.000000 37.630000 30.210000 28.990000
320 2 2 0.000000 29.160000 32.350000 27.980000
321 2 2 0.000000 21.420000 28.940000 32.800000
322 2 1 0.000000 18.880000 26.150000 34.950000
323 2 3 -0.120000 33.810000 10.900000 32.290000
324 2 5 -0.180000 34.490000 9.700000 31.630000
325 2 4 0.060000 32.840000 10.980000 31.830000
326 2 4 0.060000 34.280000 11.780000 32.110000
327 2 4 0.060000 33.630000 8.990000 31.680000
328 2 4 0.060000 35.440000 9.400000 32.020000
329 2 4 0.060000 34.720000 9.990000 30.660000
330 2 3 -0.120000 33.460000 10.540000 33.690000
331 2 3 -0.120000 32.460000 11.580000 34.380000
332 2 4 0.060000 34.350000 10.410000 34.370000
333 2 4 0.060000 33.010000 9.510000 33.830000
334 2 4 0.060000 31.640000 11.770000 33.680000
335 2 4 0.060000 33.070000 12.490000 34.660000
336 2 3 -0.120000 31.750000 11.000000 35.620000
337 2 3 -0.120000 32.630000 10.610000 36.820000
338 2 4 0.060000 31.200000 10.140000 35.370000
339 2 4 0.060000 31.130000 11.700000 36.140000
340 2 4 0.060000 33.560000 10.150000 36.340000
341 2 4 0.060000 32.120000 9.770000 37.390000
342 2 3 -0.120000 32.910000 11.730000 37.790000
343 2 3 -0.120000 33.880000 11.270000 38.830000
344 2 4 0.060000 31.950000 12.030000 38.200000
345 2 4 0.060000 33.290000 12.440000 37.160000
346 2 4 0.060000 34.680000 10.850000 38.330000
347 2 4 0.060000 33.350000 10.570000 39.480000
348 2 3 -0.120000 34.200000 12.370000 39.840000
349 2 3 -0.120000 35.050000 11.850000 41.060000
350 2 4 0.060000 33.210000 12.620000 40.300000
351 2 4 0.060000 34.470000 13.300000 39.420000
352 2 4 0.060000 35.960000 11.440000 40.860000
353 2 4 0.060000 34.540000 10.980000 41.550000
354 2 3 -0.120000 32.620000 23.870000 40.270000
355 2 3 -0.120000 33.700000 23.610000 41.200000
356 2 4 0.060000 31.540000 23.910000 40.700000
357 2 4 0.060000 32.720000 24.760000 39.660000
358 2 4 0.060000 34.470000 22.980000 40.880000
359 2 4 0.060000 33.220000 22.840000 41.850000
360 2 3 -0.120000 34.240000 24.810000 41.960000
361 2 3 -0.120000 34.610000 26.140000 41.130000
362 2 4 0.060000 35.070000 24.410000 42.470000
363 2 4 0.060000 33.580000 25.030000 42.810000
364 2 4 0.060000 33.690000 26.750000 40.840000
365 2 4 0.060000 35.000000 25.770000 40.190000
366 2 3 -0.120000 35.540000 27.110000 41.800000
367 2 3 -0.120000 35.790000 28.230000 40.720000
368 2 4 0.060000 36.450000 26.620000 42.070000
369 2 4 0.060000 35.150000 27.530000 42.680000
370 2 4 0.060000 34.800000 28.700000 40.510000
371 2 4 0.060000 36.170000 27.710000 39.830000
372 2 3 -0.120000 36.820000 29.260000 41.270000
373 2 3 -0.120000 36.640000 30.660000 40.760000
374 2 4 0.060000 37.660000 28.720000 40.860000
375 2 4 0.060000 36.900000 29.140000 42.300000
376 2 4 0.060000 35.630000 30.960000 41.150000
377 2 4 0.060000 36.660000 30.700000 39.740000
378 2 3 -0.120000 37.550000 31.700000 41.470000
379 2 3 -0.120000 38.010000 32.840000 40.610000
380 2 4 0.060000 38.390000 31.190000 41.860000
381 2 4 0.060000 37.040000 32.160000 42.330000
382 2 4 0.060000 37.150000 33.590000 40.630000
383 2 4 0.060000 38.030000 32.590000 39.490000
384 2 3 -0.120000 47.380000 38.790000 47.610000
385 2 3 -0.120000 47.100000 40.210000 48.000000
386 2 4 0.060000 48.250000 38.780000 46.920000
387 2 4 0.060000 47.750000 38.160000 48.420000
388 2 4 0.060000 47.810000 40.750000 48.720000
389 2 4 0.060000 46.180000 40.190000 48.600000
390 2 3 -0.120000 47.070000 41.330000 46.870000
391 2 3 -0.120000 46.520000 42.630000 47.410000
392 2 4 0.060000 46.270000 41.200000 46.060000
393 2 4 0.060000 48.080000 41.430000 46.460000
394 2 4 0.060000 47.050000 42.910000 48.370000
395 2 4 0.060000 45.470000 42.440000 47.780000
396 2 3 -0.120000 46.460000 43.780000 46.450000
397 2 3 -0.120000 46.870000 45.040000 47.160000
398 2 4 0.060000 45.520000 43.940000 46.120000
399 2 4 0.060000 47.170000 43.500000 45.590000
400 2 4 0.060000 47.800000 44.770000 47.680000
401 2 4 0.060000 46.230000 45.220000 48.060000
402 2 3 -0.120000 47.130000 46.230000 46.190000
403 2 3 -0.120000 47.680000 47.540000 46.950000
404 2 4 0.060000 46.130000 46.370000 45.710000
405 2 4 0.060000 47.860000 45.950000 45.490000
406 2 4 0.060000 48.670000 47.500000 47.500000
407 2 4 0.060000 46.870000 47.760000 47.770000
408 2 3 -0.120000 47.750000 48.820000 46.150000
409 2 3 -0.120000 48.930000 49.040000 45.220000
410 2 4 0.060000 47.690000 49.690000 46.810000
411 2 4 0.060000 46.790000 48.800000 45.690000
412 2 4 0.060000 48.910000 50.120000 44.960000
413 2 4 0.060000 48.820000 48.440000 44.340000
414 2 3 -0.120000 56.680000 46.570000 36.120000
415 2 3 -0.120000 57.800000 46.910000 35.130000
416 2 4 0.060000 56.640000 45.490000 36.290000
417 2 4 0.060000 56.950000 46.970000 37.140000
418 2 4 0.060000 57.680000 47.970000 34.880000
419 2 4 0.060000 57.570000 46.370000 34.180000
420 2 3 -0.120000 59.220000 46.500000 35.600000
421 2 3 -0.120000 60.420000 47.030000 34.780000
422 2 4 0.060000 59.270000 45.420000 35.560000
423 2 4 0.060000 59.270000 46.590000 36.680000
424 2 4 0.060000 60.450000 48.110000 34.880000
425 2 4 0.060000 60.200000 46.690000 33.760000
426 2 3 -0.120000 61.750000 46.550000 35.300000
427 2 3 -0.120000 62.150000 47.320000 36.560000
428 2 4 0.060000 62.530000 46.730000 34.570000
429 2 4 0.060000 61.850000 45.500000 35.550000
430 2 4 0.060000 61.360000 47.230000 37.180000
431 2 4 0.060000 62.160000 48.320000 36.280000
432 2 3 -0.120000 63.560000 46.920000 37.060000
433 2 3 -0.120000 64.500000 46.790000 35.910000
434 2 4 0.060000 63.520000 45.900000 37.480000
435 2 4 0.060000 63.950000 47.580000 37.780000
436 2 4 0.060000 64.440000 47.670000 35.220000
437 2 4 0.060000 64.380000 45.920000 35.230000
438 2 3 -0.120000 65.910000 46.850000 36.360000
439 2 3 -0.120000 66.820000 46.560000 35.230000
440 2 4 0.060000 65.920000 46.080000 37.180000
441 2 4 0.060000 66.000000 47.820000 36.950000
442 2 4 0.060000 66.510000 47.140000 34.410000
443 2 4 0.060000 66.810000 45.550000 34.880000
444 2 3 -0.120000 64.140000 47.150000 26.850000
445 2 3 -0.120000 65.000000 46.840000 25.660000
446 2 4 0.060000 64.630000 46.670000 27.710000
447 2 4 0.060000 64.320000 48.200000 27.050000
448 2 4 0.060000 65.080000 47.790000 25.120000
449 2 4 0.060000 64.500000 46.220000 25.030000
450 2 3 -0.120000 66.330000 46.180000 25.950000
451 2 3 -0.120000 67.100000 45.900000 24.630000
452 2 4 0.060000 66.080000 45.220000 26.430000
453 2 4 0.060000 66.890000 46.920000 26.540000
454 2 4 0.060000 66.510000 45.590000 23.760000
455 2 4 0.060000 67.650000 44.940000 24.900000
456 2 3 -0.120000 68.170000 47.010000 24.290000
457 2 3 -0.120000 69.060000 46.710000 23.050000
458 2 4 0.060000 68.940000 47.200000 25.100000
459 2 4 0.060000 67.620000 47.980000 24.250000
460 2 4 0.060000 69.350000 45.660000 23.110000
461 2 4 0.060000 70.010000 47.330000 23.140000
462 2 3 -0.120000 68.460000 47.040000 21.750000
463 2 3 -0.120000 69.180000 46.410000 20.540000
464 2 4 0.060000 68.610000 48.080000 21.550000
465 2 4 0.060000 67.450000 46.660000 21.520000
466 2 4 0.060000 68.950000 45.370000 20.670000
467 2 4 0.060000 70.300000 46.420000 20.660000
468 2 3 -0.120000 68.840000 46.950000 19.220000
469 2 3 -0.120000 69.590000 46.220000 18.060000
470 2 4 0.060000 69.240000 47.990000 19.140000
471 2 4 0.060000 67.760000 47.010000 18.920000
472 2 4 0.060000 70.660000 45.820000 18.430000
473 2 4 0.060000 69.820000 46.990000 17.360000
474 2 3 -0.120000 60.150000 48.920000 25.480000
475 2 3 -0.120000 60.720000 48.420000 24.140000
476 2 4 0.060000 59.120000 49.390000 25.310000
477 2 4 0.060000 59.960000 48.030000 26.090000
478 2 4 0.060000 60.680000 49.310000 23.430000
479 2 4 0.060000 60.140000 47.550000 23.650000
480 2 3 -0.120000 62.290000 48.140000 24.140000
481 2 3 -0.120000 62.740000 47.630000 22.790000
482 2 4 0.060000 62.530000 47.400000 24.920000
483 2 4 0.060000 62.810000 49.080000 24.480000
484 2 4 0.060000 62.520000 48.360000 21.980000
485 2 4 0.060000 62.240000 46.740000 22.450000
486 2 3 -0.120000 64.220000 47.190000 22.890000
487 2 3 -0.120000 64.690000 47.050000 21.460000
488 2 4 0.060000 64.250000 46.220000 23.310000
489 2 4 0.060000 64.850000 47.830000 23.500000
490 2 4 0.060000 64.540000 48.030000 21.040000
491 2 4 0.060000 63.960000 46.420000 20.900000
492 2 3 -0.120000 65.920000 46.240000 21.260000
493 2 3 -0.120000 66.440000 46.360000 19.870000
494 2 4 0.060000 65.710000 45.190000 21.540000
495 2 4 0.060000 66.610000 46.500000 21.990000
496 2 4 0.060000 66.640000 47.450000 19.740000
497 2 4 0.060000 65.590000 46.250000 19.180000
498 2 3 -0.120000 67.730000 45.510000 19.620000
499 2 3 -0.120000 67.480000 43.910000 19.340000
500 2 4 0.060000 68.600000 45.820000 20.260000
501 2 4 0.060000 68.160000 45.950000 18.710000
502 2 4 0.060000 66.740000 43.960000 18.530000
503 2 4 0.060000 67.120000 43.410000 20.270000
504 2 3 -0.120000 73.270000 44.400000 21.150000
505 2 3 -0.120000 73.160000 42.920000 20.780000
506 2 4 0.060000 74.100000 44.420000 21.910000
507 2 4 0.060000 73.610000 44.900000 20.300000
508 2 4 0.060000 72.270000 42.850000 20.120000
509 2 4 0.060000 72.900000 42.320000 21.740000
510 2 3 -0.120000 74.440000 42.290000 20.150000
511 2 3 -0.120000 74.280000 40.920000 19.590000
512 2 4 0.060000 75.070000 42.270000 21.030000
513 2 4 0.060000 74.640000 42.930000 19.260000
514 2 4 0.060000 73.460000 40.940000 18.920000
515 2 4 0.060000 74.050000 40.280000 20.440000
516 2 3 -0.120000 75.470000 40.420000 18.820000
517 2 3 -0.120000 75.220000 39.160000 17.930000
518 2 4 0.060000 76.100000 40.230000 19.620000
519 2 4 0.060000 76.060000 41.080000 18.310000
520 2 4 0.060000 76.260000 39.050000 17.480000
521 2 4 0.060000 74.580000 39.460000 17.120000
522 2 3 -0.120000 74.660000 37.940000 18.740000
523 2 3 -0.120000 74.130000 36.760000 17.860000
524 2 4 0.060000 73.840000 38.270000 19.200000
525 2 4 0.060000 75.310000 37.670000 19.560000
526 2 4 0.060000 74.820000 36.630000 17.040000
527 2 4 0.060000 73.240000 37.290000 17.600000
528 2 3 -0.120000 73.780000 35.350000 18.420000
529 2 3 -0.120000 72.610000 35.470000 19.430000
530 2 4 0.060000 74.690000 35.010000 18.830000
531 2 4 0.060000 73.590000 34.640000 17.600000
532 2 4 0.060000 71.990000 36.370000 19.220000
533 2 4 0.060000 73.140000 35.760000 20.370000
534 2 3 -0.120000 63.210000 36.420000 18.450000
535 2 3 -0.120000 63.720000 35.130000 19.060000
536 2 4 0.060000 63.000000 36.050000 17.500000
537 2 4 0.060000 62.300000 36.810000 19.040000
538 2 4 0.060000 62.910000 34.380000 19.110000
539 2 4 0.060000 64.000000 35.320000 20.040000
540 2 3 -0.120000 64.950000 34.550000 18.330000
541 2 3 -0.120000 65.530000 33.130000 18.590000
542 2 4 0.060000 65.820000 35.120000 18.660000
543 2 4 0.060000 64.820000 34.640000 17.260000
544 2 4 0.060000 65.310000 32.850000 19.600000
545 2 4 0.060000 66.610000 33.230000 18.350000
546 2 3 -0.120000 64.800000 32.020000 17.820000
547 2 3 -0.120000 65.520000 30.640000 17.960000
548 2 4 0.060000 64.520000 32.290000 16.800000
549 2 4 0.060000 63.810000 31.880000 18.290000
550 2 4 0.060000 64.930000 29.790000 18.190000
551 2 4 0.060000 66.200000 30.700000 18.810000
552 2 3 -0.120000 66.480000 30.340000 16.870000
553 2 3 -0.120000 67.710000 31.350000 16.750000
554 2 4 0.060000 65.990000 30.540000 15.880000
555 2 4 0.060000 66.900000 29.340000 17.090000
556 2 4 0.060000 68.320000 31.560000 17.730000
557 2 4 0.060000 67.270000 32.280000 16.370000
558 2 3 -0.120000 68.710000 30.840000 15.710000
559 2 3 -0.120000 69.740000 29.860000 16.340000
560 2 4 0.060000 69.280000 31.560000 15.200000
561 2 4 0.060000 68.160000 30.210000 14.950000
562 2 4 0.060000 69.040000 29.220000 16.900000
563 2 4 0.060000 70.300000 30.390000 17.140000
564 2 3 -0.120000 62.890000 25.630000 20.230000
565 2 3 -0.120000 63.600000 24.520000 21.050000
566 2 4 0.060000 63.600000 26.050000 19.550000
567 2 4 0.060000 62.110000 25.190000 19.580000
568 2 4 0.060000 62.920000 24.180000 21.750000
569 2 4 0.060000 64.400000 25.010000 21.590000
570 2 3 -0.120000 64.290000 23.480000 20.200000
571 2 3 -0.120000 65.500000 22.810000 20.710000
572 2 4 0.060000 64.480000 23.670000 19.140000
573 2 4 0.060000 63.530000 22.650000 20.280000
574 2 4 0.060000 66.150000 23.590000 21.150000
575 2 4 0.060000 65.930000 22.210000 19.830000
576 2 3 -0.120000 65.240000 21.770000 21.850000
577 2 3 -0.120000 66.620000 21.210000 22.060000
578 2 4 0.060000 64.700000 20.910000 21.580000
579 2 4 0.060000 64.880000 22.250000 22.670000
580 2 4 0.060000 67.430000 21.890000 22.360000
581 2 4 0.060000 67.010000 20.650000 21.190000
582 2 3 -0.120000 66.580000 20.070000 23.150000
583 2 3 -0.120000 67.890000 19.410000 23.510000
584 2 4 0.060000 65.750000 19.410000 22.830000
585 2 4 0.060000 66.330000 20.580000 24.030000
586 2 4 0.060000 68.460000 20.150000 23.920000
587 2 4 0.060000 68.440000 19.180000 22.570000
588 2 3 -0.120000 67.760000 18.100000 24.500000
589 2 3 -0.120000 69.240000 18.000000 25.100000
590 2 4 0.060000 67.480000 17.300000 23.830000
591 2 4 0.060000 66.910000 18.140000 25.260000
592 2 4 0.060000 69.260000 18.700000 25.920000
593 2 4 0.060000 69.980000 18.350000 24.420000
594 2 3 -0.120000 68.460000 5.140000 30.240000
595 2 5 -0.180000 67.800000 3.700000 30.300000
596 2 4 0.060000 68.850000 5.270000 31.280000
597 2 4 0.060000 69.390000 4.770000 29.590000
598 2 4 0.060000 67.660000 3.350000 29.290000
599 2 4 0.060000 66.770000 3.600000 30.850000
600 2 4 0.060000 68.450000 2.850000 30.850000
601 2 3 -0.120000 68.550000 7.400000 28.830000
602 2 3 -0.120000 67.670000 6.300000 29.560000
603 2 4 0.060000 69.360000 7.820000 29.430000
604 2 4 0.060000 69.160000 6.940000 28.000000
605 2 4 0.060000 67.010000 5.860000 28.770000
606 2 4 0.060000 67.110000 6.810000 30.320000
607 2 3 -0.120000 68.410000 9.060000 26.820000
608 2 3 -0.120000 67.730000 8.440000 28.030000
609 2 4 0.060000 69.400000 9.380000 27.080000
610 2 4 0.060000 68.500000 8.290000 26.040000
611 2 4 0.060000 66.750000 8.180000 27.680000
612 2 4 0.060000 67.460000 9.280000 28.710000
613 2 3 -0.120000 67.780000 11.470000 27.070000
614 2 3 -0.120000 67.790000 10.240000 26.230000
615 2 4 0.060000 67.540000 11.270000 28.100000
616 2 4 0.060000 68.840000 11.650000 27.230000
617 2 4 0.060000 68.370000 10.530000 25.370000
618 2 4 0.060000 66.790000 10.080000 25.780000
619 2 3 -0.120000 67.150000 13.800000 27.620000
620 2 3 -0.120000 67.130000 12.770000 26.500000
621 2 4 0.060000 66.370000 13.510000 28.330000
622 2 4 0.060000 68.140000 13.880000 28.110000
623 2 4 0.060000 67.770000 13.090000 25.720000
624 2 4 0.060000 66.030000 12.770000 26.220000
625 3 1 0.000000 46.250000 17.310000 15.510000
626 3 2 0.000000 40.190000 8.470000 14.460000
627 3 2 0.000000 37.600000 14.750000 19.820000
628 3 2 0.000000 31.800000 15.680000 28.090000
629 3 2 0.000000 41.190000 14.730000 23.510000