LAMMPS data file via write_data, version 10 Dec 2025, timestep = 6000, units = real

18 atoms
4 atom types
16 bonds
4 bond types
10 angles
1 angle types

0 57.5376 xlo xhi
0 57.5376 ylo yhi
0 57.5376 zlo zhi

Masses

1 29.062
2 28.054
3 15.035
4 14.027

Angle Coeffs # backmap/harmonic


Atoms # full

18 6 3 0 44.7801015529543 16.973391186468458 7.335590273133266 0 0 0
6 6 1 0 44.47605463393434 16.324522363028397 7.526401617194919 0 0 0
17 6 4 0 44.15015847456561 15.629024910941611 7.730924933511092 0 0 0
12 3 4 0 38.90850933320488 16.972622679884402 8.403697097846896 0 0 0
2 2 2 0 37.54767655926335 16.979372648273554 10.857250854108445 0 0 0
10 2 4 0 37.41514448510405 16.464415102536243 10.31070846798658 0 0 0
11 3 4 0 38.81390788223547 16.26923380339285 9.718401970833222 0 0 0
3 3 2 0 38.86120860772018 16.620928241638627 9.061049534340059 0 0 0
4 4 2 0 40.50104169437043 17.818125891411597 8.78683775732298 0 0 0
13 4 4 0 39.89961422190124 18.092716288807583 8.380960233213083 0 0 0
9 2 4 0 37.68020863342265 17.494330194010868 11.403793240230309 0 0 0
1 1 1 0 35.80325542162216 17.80286015659703 11.69831721788517 0 0 0
7 1 3 0 35.26180847952568 17.339900430042725 11.8902045743378 0 0 0
8 1 4 0 36.38361150449238 18.29908882193844 11.49264056541028 0 0 0
14 4 4 0 41.10246916683962 17.543535494015615 9.192715281432877 0 0 0
5 5 2 0 42.517555804858915 16.53526851340645 8.313672266854724 0 0 0
15 5 4 0 42.19661284901339 17.210666153453573 8.17096081037565 0 0 0
16 5 4 0 42.83849876070444 15.859870873359329 8.456383723333797 0 0 0

Velocities

18 0.0002832360927767358 0.0011256131523510531 -0.003707906413633469
6 0 0 0
17 0.004305132684648537 -0.00024759934608683187 0.009609387440721647
12 -2.2611831871871373e-05 0.0035216215764905636 0.003455707169144086
2 0 0 0
10 -0.004795057290556691 0.006351180034402961 0.00015454191751117696
11 -0.0028540792021285524 0.003020889343240794 -0.004386098139567787
3 0 0 0
4 0 0 0
13 0.0008948604434119348 0.0006315236813910348 -0.003183991022329571
9 -0.002002812055015008 0.002346029618346686 -0.0008302839600589087
1 0 0 0
7 -0.010501428277297494 -0.0020766460548023824 -0.0004346346267954088
8 -0.005226064361763058 -3.094620680072483e-05 0.0020406585483391184
14 -0.0017996322792383252 0.004787589198688732 0.003886266342047053
5 0 0 0
15 0.0009695926721291749 -0.003480080796627754 -0.00014311926315608366
16 0.0019217221119377894 -0.0007926287675191968 -0.0014527540320648617

Bonds

1 1 17 18
2 4 12 13
3 2 2 3
4 4 10 11
5 1 11 12
6 2 3 4
7 2 4 5
8 1 13 14
9 1 9 10
10 2 1 2
11 1 7 8
12 4 8 9
13 4 14 15
14 3 5 6
15 1 15 16
16 4 16 17

Angles

1 1 16 17 18
2 1 11 12 13
3 1 9 10 11
4 1 10 11 12
5 1 12 13 14
6 1 8 9 10
7 1 7 8 9
8 1 13 14 15
9 1 14 15 16
10 1 15 16 17
