LAMMPS data file — single dodecane chain for backmapping verification

18 atoms
16 bonds
10 angles
0 dihedrals
0 impropers

4 atom types
4 bond types
1 angle types
0 dihedral types
0 improper types

0.0 57.537600 xlo xhi
0.0 57.537600 ylo yhi
0.0 57.537600 zlo zhi

Masses

1 29.062000 # A (CG)
2 28.054000 # B (CG)
3 15.035000 # CH3
4 14.027000 # CH2

Atoms # full

1 1 1 0.000000 36.710000 17.950000 12.060000
2 2 2 0.000000 37.180000 16.620000 9.960000
3 3 2 0.000000 38.710000 16.810000 8.240000
4 4 2 0.000000 41.060000 16.400000 7.690000
5 5 2 0.000000 43.050000 17.530000 7.300000
6 6 1 0.000000 45.240000 18.060000 7.780000
7 1 3 0.000000 36.898237 18.640201 12.291676
8 1 4 0.000000 36.508237 17.210201 11.811676
9 2 4 0.000000 37.070000 17.340000 10.245000
10 2 4 0.000000 37.290000 15.900000 9.675000
11 3 4 0.000000 39.440000 16.665000 8.125000
12 3 4 0.000000 37.980000 16.955000 8.355000
13 4 4 0.000000 40.850000 15.845000 8.140000
14 4 4 0.000000 41.270000 16.955000 7.240000
15 5 4 0.000000 42.905000 16.910000 7.715000
16 5 4 0.000000 43.195000 18.150000 6.885000
17 6 4 0.000000 44.934768 17.454710 8.230088
18 6 3 0.000000 45.524768 18.624710 7.360088

Bonds

1 1 7 8
2 1 9 10
3 1 11 12
4 1 13 14
5 1 15 16
6 1 17 18
7 2 1 2
8 2 2 3
9 2 3 4
10 2 4 5
11 3 5 6
12 4 8 9
13 4 10 11
14 4 12 13
15 4 14 15
16 4 16 17

Angles

1 1 7 8 9
2 1 8 9 10
3 1 9 10 11
4 1 10 11 12
5 1 11 12 13
6 1 12 13 14
7 1 13 14 15
8 1 14 15 16
9 1 15 16 17
10 1 16 17 18
