LAMMPS data file for backmapping — generated by backmap-prep

180 atoms
160 bonds
100 angles
0 dihedrals
0 impropers

4 atom types
4 bond types
1 angle types
0 dihedral types
0 improper types

0.0 57.537600 xlo xhi
0.0 57.537600 ylo yhi
0.0 57.537600 zlo zhi

Masses

1 29.062000 # A (CG)
2 28.054000 # B (CG)
3 15.035000 # CH3
4 14.027000 # CH2

Atoms # full

1 1 1 0.000000 36.710000 17.950000 12.060000
2 1 2 0.000000 37.180000 16.620000 9.960000
3 1 2 0.000000 38.710000 16.810000 8.240000
4 1 2 0.000000 41.060000 16.400000 7.690000
5 1 2 0.000000 43.050000 17.530000 7.300000
6 1 1 0.000000 45.240000 18.060000 7.780000
7 1 3 0.000000 36.710000 17.950000 12.060000
8 1 4 0.000000 36.320000 16.520000 11.580000
9 1 4 0.000000 35.890000 15.060000 8.240000
10 1 4 0.000000 36.110000 13.620000 7.670000
11 1 4 0.000000 36.830000 13.710000 4.630000
12 1 4 0.000000 35.370000 14.000000 4.860000
13 1 4 0.000000 36.840000 13.750000 3.060000
14 1 4 0.000000 37.260000 14.860000 2.160000
15 1 4 0.000000 38.050000 16.620000 1.120000
16 1 4 0.000000 38.340000 17.860000 0.290000
17 1 4 0.000000 39.650000 19.660000 0.890000
18 1 3 0.000000 40.240000 20.830000 0.020000
19 2 1 0.000000 50.720000 25.560000 49.340000
20 2 2 0.000000 50.990000 23.790000 51.150000
21 2 2 0.000000 50.950000 21.930000 52.580000
22 2 2 0.000000 50.630000 20.120000 53.900000
23 2 2 0.000000 52.260000 19.310000 55.010000
24 2 1 0.000000 54.350000 18.330000 55.970000
25 2 3 0.000000 50.720000 25.560000 49.340000
26 2 4 0.000000 50.330000 24.130000 48.860000
27 2 4 0.000000 49.700000 22.230000 49.430000
28 2 4 0.000000 49.920000 20.790000 48.860000
29 2 4 0.000000 49.070000 18.830000 48.970000
30 2 4 0.000000 47.610000 19.120000 49.200000
31 2 4 0.000000 46.410000 17.470000 49.270000
32 2 4 0.000000 46.830000 18.580000 48.370000
33 2 4 0.000000 47.260000 18.400000 48.830000
34 2 4 0.000000 47.550000 19.640000 48.000000
35 2 4 0.000000 48.760000 19.930000 49.080000
36 2 3 0.000000 49.350000 21.100000 48.210000
37 3 1 0.000000 16.650000 56.750000 15.850000
38 3 2 0.000000 18.050000 57.210000 14.080000
39 3 2 0.000000 19.820000 0.480000 12.410000
40 3 2 0.000000 20.860000 2.430000 12.640000
41 3 2 0.000000 21.790000 4.040000 14.190000
42 3 1 0.000000 22.830000 5.620000 15.420000
43 3 3 0.000000 16.650000 56.750000 15.850000
44 3 4 0.000000 16.260000 55.320000 15.370000
45 3 4 0.000000 16.760000 55.650000 12.360000
46 3 4 0.000000 16.980000 54.210000 11.790000
47 3 4 0.000000 17.940000 -2.620000 8.800000
48 3 4 0.000000 16.480000 -2.330000 9.030000
49 3 4 0.000000 16.640000 -0.220000 8.010000
50 3 4 0.000000 17.060000 0.890000 7.110000
51 3 4 0.000000 16.790000 3.130000 8.010000
52 3 4 0.000000 17.080000 4.370000 7.180000
53 3 4 0.000000 17.240000 7.220000 8.530000
54 3 3 0.000000 17.830000 8.390000 7.660000
55 4 1 0.000000 27.320000 22.760000 23.510000
56 4 2 0.000000 26.060000 22.980000 25.390000
57 4 2 0.000000 24.540000 24.450000 26.920000
58 4 2 0.000000 24.090000 26.240000 28.780000
59 4 2 0.000000 23.560000 27.780000 30.430000
60 4 1 0.000000 24.410000 27.570000 32.530000
61 4 3 0.000000 27.320000 22.760000 23.510000
62 4 4 0.000000 26.930000 21.330000 23.030000
63 4 4 0.000000 24.770000 21.420000 23.670000
64 4 4 0.000000 24.990000 19.980000 23.100000
65 4 4 0.000000 22.660000 21.350000 23.310000
66 4 4 0.000000 21.200000 21.640000 23.540000
67 4 4 0.000000 19.870000 23.590000 24.150000
68 4 4 0.000000 20.290000 24.700000 23.250000
69 4 4 0.000000 18.560000 26.870000 24.250000
70 4 4 0.000000 18.850000 28.110000 23.420000
71 4 4 0.000000 18.820000 29.170000 25.640000
72 4 3 0.000000 19.410000 30.340000 24.770000
73 5 1 0.000000 52.930000 50.480000 57.260000
74 5 2 0.000000 51.520000 52.530000 0.150000
75 5 2 0.000000 50.540000 54.630000 0.220000
76 5 2 0.000000 49.240000 56.770000 0.040000
77 5 2 0.000000 49.530000 0.290000 55.630000
78 5 1 0.000000 50.970000 0.410000 53.540000
79 5 3 0.000000 52.930000 50.480000 57.260000
80 5 4 0.000000 52.540000 49.050000 56.780000
81 5 4 0.000000 50.230000 50.970000 -1.570000
82 5 4 0.000000 50.450000 49.530000 -2.140000
83 5 4 0.000000 48.660000 51.530000 -3.390000
84 5 4 0.000000 47.200000 51.820000 -3.160000
85 5 4 0.000000 45.020000 54.120000 -4.590000
86 5 4 0.000000 45.440000 55.230000 -5.490000
87 5 4 0.000000 44.530000 -0.620000 49.450000
88 5 4 0.000000 44.820000 0.620000 48.620000
89 5 4 0.000000 45.380000 2.010000 46.650000
90 5 3 0.000000 45.970000 3.180000 45.780000
91 6 1 0.000000 49.450000 41.610000 54.580000
92 6 2 0.000000 50.610000 40.430000 52.950000
93 6 2 0.000000 51.610000 39.390000 51.280000
94 6 2 0.000000 52.840000 37.910000 49.730000
95 6 2 0.000000 53.590000 36.330000 48.200000
96 6 1 0.000000 52.600000 34.420000 47.700000
97 6 3 0.000000 49.450000 41.610000 54.580000
98 6 4 0.000000 49.060000 40.180000 54.100000
99 6 4 0.000000 49.320000 38.870000 51.230000
100 6 4 0.000000 49.540000 37.430000 50.660000
101 6 4 0.000000 49.730000 36.290000 47.670000
102 6 4 0.000000 48.270000 36.580000 47.900000
103 6 4 0.000000 48.620000 35.260000 45.100000
104 6 4 0.000000 49.040000 36.370000 44.200000
105 6 4 0.000000 48.590000 35.420000 42.020000
106 6 4 0.000000 48.880000 36.660000 41.190000
107 6 4 0.000000 47.010000 36.020000 40.810000
108 6 3 0.000000 47.600000 37.190000 39.940000
109 7 1 0.000000 8.100000 3.120000 8.890000
110 7 2 0.000000 6.410000 1.770000 9.420000
111 7 2 0.000000 4.470000 1.610000 8.410000
112 7 2 0.000000 2.700000 3.530000 8.190000
113 7 2 0.000000 1.490000 5.430000 8.000000
114 7 1 0.000000 0.080000 7.420000 7.970000
115 7 3 0.000000 8.100000 3.120000 8.890000
116 7 4 0.000000 7.710000 1.690000 8.410000
117 7 4 0.000000 5.120000 0.210000 7.700000
118 7 4 0.000000 5.340000 -1.230000 7.130000
119 7 4 0.000000 2.590000 -1.490000 4.800000
120 7 4 0.000000 1.130000 -1.200000 5.030000
121 7 4 0.000000 -1.520000 0.880000 3.560000
122 7 4 0.000000 -1.100000 1.990000 2.660000
123 7 4 0.000000 -3.510000 4.520000 1.820000
124 7 4 0.000000 -3.220000 5.760000 0.990000
125 7 4 0.000000 -5.510000 9.020000 1.080000
126 7 3 0.000000 -4.920000 10.190000 0.210000
127 8 1 0.000000 34.760000 14.140000 57.390000
128 8 2 0.000000 32.590000 13.060000 57.070000
129 8 2 0.000000 31.270000 13.200000 54.910000
130 8 2 0.000000 31.140000 12.680000 52.410000
131 8 2 0.000000 30.780000 12.010000 50.090000
132 8 1 0.000000 29.780000 10.520000 48.550000
133 8 3 0.000000 34.760000 14.140000 57.390000
134 8 4 0.000000 34.370000 12.710000 56.910000
135 8 4 0.000000 31.300000 11.500000 55.350000
136 8 4 0.000000 31.520000 10.060000 54.780000
137 8 4 0.000000 29.390000 10.100000 51.300000
138 8 4 0.000000 27.930000 10.390000 51.530000
139 8 4 0.000000 26.920000 10.030000 47.780000
140 8 4 0.000000 27.340000 11.140000 46.880000
141 8 4 0.000000 25.780000 11.100000 43.910000
142 8 4 0.000000 26.070000 12.340000 43.080000
143 8 4 0.000000 24.190000 12.120000 41.660000
144 8 3 0.000000 24.780000 13.290000 40.790000
145 9 1 0.000000 40.720000 42.560000 34.130000
146 9 2 0.000000 38.700000 42.080000 35.420000
147 9 2 0.000000 36.440000 41.110000 35.960000
148 9 2 0.000000 35.570000 39.370000 34.620000
149 9 2 0.000000 37.180000 38.300000 33.540000
150 9 1 0.000000 39.330000 37.480000 32.490000
151 9 3 0.000000 40.720000 42.560000 34.130000
152 9 4 0.000000 40.330000 41.130000 33.650000
153 9 4 0.000000 37.410000 40.520000 33.700000
154 9 4 0.000000 37.630000 39.080000 33.130000
155 9 4 0.000000 34.560000 38.010000 32.350000
156 9 4 0.000000 33.100000 38.300000 32.580000
157 9 4 0.000000 31.350000 36.720000 29.990000
158 9 4 0.000000 31.770000 37.830000 29.090000
159 9 4 0.000000 32.180000 37.390000 27.360000
160 9 4 0.000000 32.470000 38.630000 26.530000
161 9 4 0.000000 33.740000 39.080000 25.600000
162 9 3 0.000000 34.330000 40.250000 24.730000
163 10 1 0.000000 52.290000 6.070000 31.310000
164 10 2 0.000000 52.190000 7.080000 33.340000
165 10 2 0.000000 51.210000 8.310000 35.320000
166 10 2 0.000000 50.160000 9.420000 36.900000
167 10 2 0.000000 48.620000 11.000000 36.910000
168 10 1 0.000000 46.950000 10.890000 35.090000
169 10 3 0.000000 52.290000 6.070000 31.310000
170 10 4 0.000000 51.900000 4.640000 30.830000
171 10 4 0.000000 50.900000 5.520000 31.620000
172 10 4 0.000000 51.120000 4.080000 31.050000
173 10 4 0.000000 49.330000 5.210000 31.710000
174 10 4 0.000000 47.870000 5.500000 31.940000
175 10 4 0.000000 45.940000 6.770000 32.270000
176 10 4 0.000000 46.360000 7.880000 31.370000
177 10 4 0.000000 43.620000 10.090000 30.730000
178 10 4 0.000000 43.910000 11.330000 29.900000
179 10 4 0.000000 41.360000 12.490000 28.200000
180 10 3 0.000000 41.950000 13.660000 27.330000

Bonds

1 1 7 8
2 1 9 10
3 1 11 12
4 1 13 14
5 1 15 16
6 1 17 18
7 2 1 2
8 2 2 3
9 2 3 4
10 2 4 5
11 3 5 6
12 4 8 9
13 4 10 11
14 4 12 13
15 4 14 15
16 4 16 17
17 1 25 26
18 1 27 28
19 1 29 30
20 1 31 32
21 1 33 34
22 1 35 36
23 2 19 20
24 2 20 21
25 2 21 22
26 2 22 23
27 3 23 24
28 4 26 27
29 4 28 29
30 4 30 31
31 4 32 33
32 4 34 35
33 1 43 44
34 1 45 46
35 1 47 48
36 1 49 50
37 1 51 52
38 1 53 54
39 2 37 38
40 2 38 39
41 2 39 40
42 2 40 41
43 3 41 42
44 4 44 45
45 4 46 47
46 4 48 49
47 4 50 51
48 4 52 53
49 1 61 62
50 1 63 64
51 1 65 66
52 1 67 68
53 1 69 70
54 1 71 72
55 2 55 56
56 2 56 57
57 2 57 58
58 2 58 59
59 3 59 60
60 4 62 63
61 4 64 65
62 4 66 67
63 4 68 69
64 4 70 71
65 1 79 80
66 1 81 82
67 1 83 84
68 1 85 86
69 1 87 88
70 1 89 90
71 2 73 74
72 2 74 75
73 2 75 76
74 2 76 77
75 3 77 78
76 4 80 81
77 4 82 83
78 4 84 85
79 4 86 87
80 4 88 89
81 1 97 98
82 1 99 100
83 1 101 102
84 1 103 104
85 1 105 106
86 1 107 108
87 2 91 92
88 2 92 93
89 2 93 94
90 2 94 95
91 3 95 96
92 4 98 99
93 4 100 101
94 4 102 103
95 4 104 105
96 4 106 107
97 1 115 116
98 1 117 118
99 1 119 120
100 1 121 122
101 1 123 124
102 1 125 126
103 2 109 110
104 2 110 111
105 2 111 112
106 2 112 113
107 3 113 114
108 4 116 117
109 4 118 119
110 4 120 121
111 4 122 123
112 4 124 125
113 1 133 134
114 1 135 136
115 1 137 138
116 1 139 140
117 1 141 142
118 1 143 144
119 2 127 128
120 2 128 129
121 2 129 130
122 2 130 131
123 3 131 132
124 4 134 135
125 4 136 137
126 4 138 139
127 4 140 141
128 4 142 143
129 1 151 152
130 1 153 154
131 1 155 156
132 1 157 158
133 1 159 160
134 1 161 162
135 2 145 146
136 2 146 147
137 2 147 148
138 2 148 149
139 3 149 150
140 4 152 153
141 4 154 155
142 4 156 157
143 4 158 159
144 4 160 161
145 1 169 170
146 1 171 172
147 1 173 174
148 1 175 176
149 1 177 178
150 1 179 180
151 2 163 164
152 2 164 165
153 2 165 166
154 2 166 167
155 3 167 168
156 4 170 171
157 4 172 173
158 4 174 175
159 4 176 177
160 4 178 179

Angles

1 1 7 8 9
2 1 8 9 10
3 1 9 10 11
4 1 10 11 12
5 1 11 12 13
6 1 12 13 14
7 1 13 14 15
8 1 14 15 16
9 1 15 16 17
10 1 16 17 18
11 1 25 26 27
12 1 26 27 28
13 1 27 28 29
14 1 28 29 30
15 1 29 30 31
16 1 30 31 32
17 1 31 32 33
18 1 32 33 34
19 1 33 34 35
20 1 34 35 36
21 1 43 44 45
22 1 44 45 46
23 1 45 46 47
24 1 46 47 48
25 1 47 48 49
26 1 48 49 50
27 1 49 50 51
28 1 50 51 52
29 1 51 52 53
30 1 52 53 54
31 1 61 62 63
32 1 62 63 64
33 1 63 64 65
34 1 64 65 66
35 1 65 66 67
36 1 66 67 68
37 1 67 68 69
38 1 68 69 70
39 1 69 70 71
40 1 70 71 72
41 1 79 80 81
42 1 80 81 82
43 1 81 82 83
44 1 82 83 84
45 1 83 84 85
46 1 84 85 86
47 1 85 86 87
48 1 86 87 88
49 1 87 88 89
50 1 88 89 90
51 1 97 98 99
52 1 98 99 100
53 1 99 100 101
54 1 100 101 102
55 1 101 102 103
56 1 102 103 104
57 1 103 104 105
58 1 104 105 106
59 1 105 106 107
60 1 106 107 108
61 1 115 116 117
62 1 116 117 118
63 1 117 118 119
64 1 118 119 120
65 1 119 120 121
66 1 120 121 122
67 1 121 122 123
68 1 122 123 124
69 1 123 124 125
70 1 124 125 126
71 1 133 134 135
72 1 134 135 136
73 1 135 136 137
74 1 136 137 138
75 1 137 138 139
76 1 138 139 140
77 1 139 140 141
78 1 140 141 142
79 1 141 142 143
80 1 142 143 144
81 1 151 152 153
82 1 152 153 154
83 1 153 154 155
84 1 154 155 156
85 1 155 156 157
86 1 156 157 158
87 1 157 158 159
88 1 158 159 160
89 1 159 160 161
90 1 160 161 162
91 1 169 170 171
92 1 170 171 172
93 1 171 172 173
94 1 172 173 174
95 1 173 174 175
96 1 174 175 176
97 1 175 176 177
98 1 176 177 178
99 1 177 178 179
100 1 178 179 180
