LAMMPS data file for backmapping — generated by backmap-prep

1500 atoms
1500 bonds
2100 angles
0 dihedrals
0 impropers

9 atom types
11 bond types
42 angle types
0 dihedral types
0 improper types

0.0 65.328700 xlo xhi
0.0 65.328700 ylo yhi
0.0 65.328700 zlo zhi

Masses

1 72.067000 # A (CG)
2 14.006700 # opls_902
3 12.011000 # opls_145
4 14.006700 # opls_901
5 12.011000 # opls_157
6 1.008000 # opls_910
7 15.999400 # opls_154
8 1.008000 # opls_156
9 1.008000 # opls_155

Atoms # full

1 1 1 0.000000 39.030000 6.910000 47.960000
2 1 1 0.000000 38.210000 2.720000 45.300000
3 1 1 0.000000 38.370000 6.660000 43.430000
4 1 2 -0.901187 39.030000 6.910000 47.960000
5 1 3 0.993526 38.060000 7.880000 48.170000
6 1 4 -0.735566 37.110000 7.630000 49.170000
7 1 5 0.306405 37.490000 6.770000 50.350000
8 1 7 -0.577392 36.580000 6.730000 51.380000
9 1 9 0.367197 36.520000 5.770000 51.550000
10 1 8 0.086304 38.520000 7.000000 50.650000
11 1 8 0.006047 37.830000 5.780000 50.020000
12 1 6 0.395381 36.500000 8.440000 49.130000
13 1 2 -0.723387 36.860000 4.610000 44.630000
14 1 3 0.686578 37.830000 4.980000 43.810000
15 1 4 -0.702118 37.490000 5.870000 42.780000
16 1 5 0.467850 36.680000 7.100000 42.590000
17 1 7 -0.628009 37.100000 8.060000 41.530000
18 1 9 0.394768 36.590000 8.880000 41.700000
19 1 8 -0.031221 36.810000 7.790000 43.440000
20 1 8 0.031089 35.590000 7.110000 42.690000
21 1 6 0.384852 38.380000 5.800000 42.300000
22 1 2 -0.541197 39.010000 8.070000 41.520000
23 1 3 0.826629 39.180000 7.010000 42.310000
24 1 4 -0.720973 39.980000 5.920000 41.990000
25 1 5 0.324077 40.840000 5.710000 40.800000
26 1 7 -0.633848 41.390000 4.440000 40.990000
27 1 9 0.421918 41.840000 4.240000 40.150000
28 1 8 0.026269 41.610000 6.450000 41.050000
29 1 8 0.072727 40.380000 5.820000 39.810000
30 1 6 0.403281 40.180000 5.290000 42.750000
31 2 1 0.000000 41.080000 24.720000 0.730000
32 2 1 0.000000 46.330000 25.520000 0.620000
33 2 1 0.000000 44.120000 21.220000 -0.060000
34 2 2 -0.901187 41.080000 24.720000 0.730000
35 2 3 0.993526 40.110000 25.690000 0.940000
36 2 4 -0.735566 39.160000 25.440000 1.940000
37 2 5 0.306405 39.540000 24.580000 3.120000
38 2 7 -0.577392 38.630000 24.540000 4.150000
39 2 9 0.367197 38.570000 23.580000 4.320000
40 2 8 0.086304 40.570000 24.810000 3.420000
41 2 8 0.006047 39.880000 23.590000 2.790000
42 2 6 0.395381 38.550000 26.250000 1.900000
43 2 2 -0.723387 44.980000 27.410000 -0.050000
44 2 3 0.686578 45.950000 27.780000 -0.870000
45 2 4 -0.702118 45.610000 28.670000 -1.900000
46 2 5 0.467850 44.800000 29.900000 -2.090000
47 2 7 -0.628009 45.220000 30.860000 -3.150000
48 2 9 0.394768 44.710000 31.680000 -2.980000
49 2 8 -0.031221 44.930000 30.590000 -1.240000
50 2 8 0.031089 43.710000 29.910000 -1.990000
51 2 6 0.384852 46.500000 28.600000 -2.380000
52 2 2 -0.541197 44.760000 22.630000 -1.970000
53 2 3 0.826629 44.930000 21.570000 -1.180000
54 2 4 -0.720973 45.730000 20.480000 -1.500000
55 2 5 0.324077 46.590000 20.270000 -2.690000
56 2 7 -0.633848 47.140000 19.000000 -2.500000
57 2 9 0.421918 47.590000 18.800000 -3.340000
58 2 8 0.026269 47.360000 21.010000 -2.440000
59 2 8 0.072727 46.130000 20.380000 -3.680000
60 2 6 0.403281 45.930000 19.850000 -0.740000
61 3 1 0.000000 35.220000 30.770000 61.180000
62 3 1 0.000000 38.030000 34.630000 61.320000
63 3 1 0.000000 39.290000 30.260000 59.010000
64 3 2 -0.901187 35.220000 30.770000 61.180000
65 3 3 0.993526 34.250000 31.740000 61.390000
66 3 4 -0.735566 33.300000 31.490000 62.390000
67 3 5 0.306405 33.680000 30.630000 63.570000
68 3 7 -0.577392 32.770000 30.590000 64.600000
69 3 9 0.367197 32.710000 29.630000 64.770000
70 3 8 0.086304 34.710000 30.860000 63.870000
71 3 8 0.006047 34.020000 29.640000 63.240000
72 3 6 0.395381 32.690000 32.300000 62.350000
73 3 2 -0.723387 36.680000 36.520000 60.650000
74 3 3 0.686578 37.650000 36.890000 59.830000
75 3 4 -0.702118 37.310000 37.780000 58.800000
76 3 5 0.467850 36.500000 39.010000 58.610000
77 3 7 -0.628009 36.920000 39.970000 57.550000
78 3 9 0.394768 36.410000 40.790000 57.720000
79 3 8 -0.031221 36.630000 39.700000 59.460000
80 3 8 0.031089 35.410000 39.020000 58.710000
81 3 6 0.384852 38.200000 37.710000 58.320000
82 3 2 -0.541197 39.930000 31.670000 57.100000
83 3 3 0.826629 40.100000 30.610000 57.890000
84 3 4 -0.720973 40.900000 29.520000 57.570000
85 3 5 0.324077 41.760000 29.310000 56.380000
86 3 7 -0.633848 42.310000 28.040000 56.570000
87 3 9 0.421918 42.760000 27.840000 55.730000
88 3 8 0.026269 42.530000 30.050000 56.630000
89 3 8 0.072727 41.300000 29.420000 55.390000
90 3 6 0.403281 41.100000 28.890000 58.330000
91 4 1 0.000000 60.440000 12.710000 53.690000
92 4 1 0.000000 59.190000 16.340000 55.920000
93 4 1 0.000000 62.880000 13.330000 57.390000
94 4 2 -0.901187 60.440000 12.710000 53.690000
95 4 3 0.993526 59.470000 13.680000 53.900000
96 4 4 -0.735566 58.520000 13.430000 54.900000
97 4 5 0.306405 58.900000 12.570000 56.080000
98 4 7 -0.577392 57.990000 12.530000 57.110000
99 4 9 0.367197 57.930000 11.570000 57.280000
100 4 8 0.086304 59.930000 12.800000 56.380000
101 4 8 0.006047 59.240000 11.580000 55.750000
102 4 6 0.395381 57.910000 14.240000 54.860000
103 4 2 -0.723387 57.840000 18.230000 55.250000
104 4 3 0.686578 58.810000 18.600000 54.430000
105 4 4 -0.702118 58.470000 19.490000 53.400000
106 4 5 0.467850 57.660000 20.720000 53.210000
107 4 7 -0.628009 58.080000 21.680000 52.150000
108 4 9 0.394768 57.570000 22.500000 52.320000
109 4 8 -0.031221 57.790000 21.410000 54.060000
110 4 8 0.031089 56.570000 20.730000 53.310000
111 4 6 0.384852 59.360000 19.420000 52.920000
112 4 2 -0.541197 63.520000 14.740000 55.480000
113 4 3 0.826629 63.690000 13.680000 56.270000
114 4 4 -0.720973 64.490000 12.590000 55.950000
115 4 5 0.324077 65.350000 12.380000 54.760000
116 4 7 -0.633848 65.900000 11.110000 54.950000
117 4 9 0.421918 66.350000 10.910000 54.110000
118 4 8 0.026269 66.120000 13.120000 55.010000
119 4 8 0.072727 64.890000 12.490000 53.770000
120 4 6 0.403281 64.690000 11.960000 56.710000
121 5 1 0.000000 44.630000 16.930000 2.600000
122 5 1 0.000000 42.490000 14.880000 -0.510000
123 5 1 0.000000 46.300000 17.680000 -2.200000
124 5 2 -0.901187 44.630000 16.930000 2.600000
125 5 3 0.993526 43.660000 17.900000 2.810000
126 5 4 -0.735566 42.710000 17.650000 3.810000
127 5 5 0.306405 43.090000 16.790000 4.990000
128 5 7 -0.577392 42.180000 16.750000 6.020000
129 5 9 0.367197 42.120000 15.790000 6.190000
130 5 8 0.086304 44.120000 17.020000 5.290000
131 5 8 0.006047 43.430000 15.800000 4.660000
132 5 6 0.395381 42.100000 18.460000 3.770000
133 5 2 -0.723387 41.140000 16.770000 -1.180000
134 5 3 0.686578 42.110000 17.140000 -2.000000
135 5 4 -0.702118 41.770000 18.030000 -3.030000
136 5 5 0.467850 40.960000 19.260000 -3.220000
137 5 7 -0.628009 41.380000 20.220000 -4.280000
138 5 9 0.394768 40.870000 21.040000 -4.110000
139 5 8 -0.031221 41.090000 19.950000 -2.370000
140 5 8 0.031089 39.870000 19.270000 -3.120000
141 5 6 0.384852 42.660000 17.960000 -3.510000
142 5 2 -0.541197 46.940000 19.090000 -4.110000
143 5 3 0.826629 47.110000 18.030000 -3.320000
144 5 4 -0.720973 47.910000 16.940000 -3.640000
145 5 5 0.324077 48.770000 16.730000 -4.830000
146 5 7 -0.633848 49.320000 15.460000 -4.640000
147 5 9 0.421918 49.770000 15.260000 -5.480000
148 5 8 0.026269 49.540000 17.470000 -4.580000
149 5 8 0.072727 48.310000 16.840000 -5.820000
150 5 6 0.403281 48.110000 16.310000 -2.880000
151 6 1 0.000000 9.130000 29.270000 10.130000
152 6 1 0.000000 12.490000 32.420000 8.320000
153 6 1 0.000000 12.660000 30.090000 12.720000
154 6 2 -0.901187 9.130000 29.270000 10.130000
155 6 3 0.993526 8.160000 30.240000 10.340000
156 6 4 -0.735566 7.210000 29.990000 11.340000
157 6 5 0.306405 7.590000 29.130000 12.520000
158 6 7 -0.577392 6.680000 29.090000 13.550000
159 6 9 0.367197 6.620000 28.130000 13.720000
160 6 8 0.086304 8.620000 29.360000 12.820000
161 6 8 0.006047 7.930000 28.140000 12.190000
162 6 6 0.395381 6.600000 30.800000 11.300000
163 6 2 -0.723387 11.140000 34.310000 7.650000
164 6 3 0.686578 12.110000 34.680000 6.830000
165 6 4 -0.702118 11.770000 35.570000 5.800000
166 6 5 0.467850 10.960000 36.800000 5.610000
167 6 7 -0.628009 11.380000 37.760000 4.550000
168 6 9 0.394768 10.870000 38.580000 4.720000
169 6 8 -0.031221 11.090000 37.490000 6.460000
170 6 8 0.031089 9.870000 36.810000 5.710000
171 6 6 0.384852 12.660000 35.500000 5.320000
172 6 2 -0.541197 13.300000 31.500000 10.810000
173 6 3 0.826629 13.470000 30.440000 11.600000
174 6 4 -0.720973 14.270000 29.350000 11.280000
175 6 5 0.324077 15.130000 29.140000 10.090000
176 6 7 -0.633848 15.680000 27.870000 10.280000
177 6 9 0.421918 16.130000 27.670000 9.440000
178 6 8 0.026269 15.900000 29.880000 10.340000
179 6 8 0.072727 14.670000 29.250000 9.100000
180 6 6 0.403281 14.470000 28.720000 12.040000
181 7 1 0.000000 53.880000 15.050000 26.930000
182 7 1 0.000000 57.870000 13.090000 25.050000
183 7 1 0.000000 57.160000 16.980000 26.410000
184 7 2 -0.901187 53.880000 15.050000 26.930000
185 7 3 0.993526 52.910000 16.020000 27.140000
186 7 4 -0.735566 51.960000 15.770000 28.140000
187 7 5 0.306405 52.340000 14.910000 29.320000
188 7 7 -0.577392 51.430000 14.870000 30.350000
189 7 9 0.367197 51.370000 13.910000 30.520000
190 7 8 0.086304 53.370000 15.140000 29.620000
191 7 8 0.006047 52.680000 13.920000 28.990000
192 7 6 0.395381 51.350000 16.580000 28.100000
193 7 2 -0.723387 56.520000 14.980000 24.380000
194 7 3 0.686578 57.490000 15.350000 23.560000
195 7 4 -0.702118 57.150000 16.240000 22.530000
196 7 5 0.467850 56.340000 17.470000 22.340000
197 7 7 -0.628009 56.760000 18.430000 21.280000
198 7 9 0.394768 56.250000 19.250000 21.450000
199 7 8 -0.031221 56.470000 18.160000 23.190000
200 7 8 0.031089 55.250000 17.480000 22.440000
201 7 6 0.384852 58.040000 16.170000 22.050000
202 7 2 -0.541197 57.800000 18.390000 24.500000
203 7 3 0.826629 57.970000 17.330000 25.290000
204 7 4 -0.720973 58.770000 16.240000 24.970000
205 7 5 0.324077 59.630000 16.030000 23.780000
206 7 7 -0.633848 60.180000 14.760000 23.970000
207 7 9 0.421918 60.630000 14.560000 23.130000
208 7 8 0.026269 60.400000 16.770000 24.030000
209 7 8 0.072727 59.170000 16.140000 22.790000
210 7 6 0.403281 58.970000 15.610000 25.730000
211 8 1 0.000000 48.720000 42.070000 35.250000
212 8 1 0.000000 45.130000 41.100000 32.120000
213 8 1 0.000000 43.960000 39.900000 35.650000
214 8 2 -0.901187 48.720000 42.070000 35.250000
215 8 3 0.993526 47.750000 43.040000 35.460000
216 8 4 -0.735566 46.800000 42.790000 36.460000
217 8 5 0.306405 47.180000 41.930000 37.640000
218 8 7 -0.577392 46.270000 41.890000 38.670000
219 8 9 0.367197 46.210000 40.930000 38.840000
220 8 8 0.086304 48.210000 42.160000 37.940000
221 8 8 0.006047 47.520000 40.940000 37.310000
222 8 6 0.395381 46.190000 43.600000 36.420000
223 8 2 -0.723387 43.780000 42.990000 31.450000
224 8 3 0.686578 44.750000 43.360000 30.630000
225 8 4 -0.702118 44.410000 44.250000 29.600000
226 8 5 0.467850 43.600000 45.480000 29.410000
227 8 7 -0.628009 44.020000 46.440000 28.350000
228 8 9 0.394768 43.510000 47.260000 28.520000
229 8 8 -0.031221 43.730000 46.170000 30.260000
230 8 8 0.031089 42.510000 45.490000 29.510000
231 8 6 0.384852 45.300000 44.180000 29.120000
232 8 2 -0.541197 44.600000 41.310000 33.740000
233 8 3 0.826629 44.770000 40.250000 34.530000
234 8 4 -0.720973 45.570000 39.160000 34.210000
235 8 5 0.324077 46.430000 38.950000 33.020000
236 8 7 -0.633848 46.980000 37.680000 33.210000
237 8 9 0.421918 47.430000 37.480000 32.370000
238 8 8 0.026269 47.200000 39.690000 33.270000
239 8 8 0.072727 45.970000 39.060000 32.030000
240 8 6 0.403281 45.770000 38.530000 34.970000
241 9 1 0.000000 27.540000 57.830000 26.890000
242 9 1 0.000000 28.930000 58.880000 23.420000
243 9 1 0.000000 30.730000 54.720000 25.070000
244 9 2 -0.901187 27.540000 57.830000 26.890000
245 9 3 0.993526 26.570000 58.800000 27.100000
246 9 4 -0.735566 25.620000 58.550000 28.100000
247 9 5 0.306405 26.000000 57.690000 29.280000
248 9 7 -0.577392 25.090000 57.650000 30.310000
249 9 9 0.367197 25.030000 56.690000 30.480000
250 9 8 0.086304 27.030000 57.920000 29.580000
251 9 8 0.006047 26.340000 56.700000 28.950000
252 9 6 0.395381 25.010000 59.360000 28.060000
253 9 2 -0.723387 27.580000 60.770000 22.750000
254 9 3 0.686578 28.550000 61.140000 21.930000
255 9 4 -0.702118 28.210000 62.030000 20.900000
256 9 5 0.467850 27.400000 63.260000 20.710000
257 9 7 -0.628009 27.820000 64.220000 19.650000
258 9 9 0.394768 27.310000 65.040000 19.820000
259 9 8 -0.031221 27.530000 63.950000 21.560000
260 9 8 0.031089 26.310000 63.270000 20.810000
261 9 6 0.384852 29.100000 61.960000 20.420000
262 9 2 -0.541197 31.370000 56.130000 23.160000
263 9 3 0.826629 31.540000 55.070000 23.950000
264 9 4 -0.720973 32.340000 53.980000 23.630000
265 9 5 0.324077 33.200000 53.770000 22.440000
266 9 7 -0.633848 33.750000 52.500000 22.630000
267 9 9 0.421918 34.200000 52.300000 21.790000
268 9 8 0.026269 33.970000 54.510000 22.690000
269 9 8 0.072727 32.740000 53.880000 21.450000
270 9 6 0.403281 32.540000 53.350000 24.390000
271 10 1 0.000000 22.560000 14.680000 13.800000
272 10 1 0.000000 18.410000 14.880000 11.440000
273 10 1 0.000000 19.470000 18.120000 14.600000
274 10 2 -0.901187 22.560000 14.680000 13.800000
275 10 3 0.993526 21.590000 15.650000 14.010000
276 10 4 -0.735566 20.640000 15.400000 15.010000
277 10 5 0.306405 21.020000 14.540000 16.190000
278 10 7 -0.577392 20.110000 14.500000 17.220000
279 10 9 0.367197 20.050000 13.540000 17.390000
280 10 8 0.086304 22.050000 14.770000 16.490000
281 10 8 0.006047 21.360000 13.550000 15.860000
282 10 6 0.395381 20.030000 16.210000 14.970000
283 10 2 -0.723387 17.060000 16.770000 10.770000
284 10 3 0.686578 18.030000 17.140000 9.950000
285 10 4 -0.702118 17.690000 18.030000 8.920000
286 10 5 0.467850 16.880000 19.260000 8.730000
287 10 7 -0.628009 17.300000 20.220000 7.670000
288 10 9 0.394768 16.790000 21.040000 7.840000
289 10 8 -0.031221 17.010000 19.950000 9.580000
290 10 8 0.031089 15.790000 19.270000 8.830000
291 10 6 0.384852 18.580000 17.960000 8.440000
292 10 2 -0.541197 20.110000 19.530000 12.690000
293 10 3 0.826629 20.280000 18.470000 13.480000
294 10 4 -0.720973 21.080000 17.380000 13.160000
295 10 5 0.324077 21.940000 17.170000 11.970000
296 10 7 -0.633848 22.490000 15.900000 12.160000
297 10 9 0.421918 22.940000 15.700000 11.320000
298 10 8 0.026269 22.710000 17.910000 12.220000
299 10 8 0.072727 21.480000 17.280000 10.980000
300 10 6 0.403281 21.280000 16.750000 13.920000
301 11 1 0.000000 11.060000 32.450000 20.450000
302 11 1 0.000000 13.920000 32.340000 24.410000
303 11 1 0.000000 11.400000 29.050000 23.090000
304 11 2 -0.901187 11.060000 32.450000 20.450000
305 11 3 0.993526 10.090000 33.420000 20.660000
306 11 4 -0.735566 9.140000 33.170000 21.660000
307 11 5 0.306405 9.520000 32.310000 22.840000
308 11 7 -0.577392 8.610000 32.270000 23.870000
309 11 9 0.367197 8.550000 31.310000 24.040000
310 11 8 0.086304 10.550000 32.540000 23.140000
311 11 8 0.006047 9.860000 31.320000 22.510000
312 11 6 0.395381 8.530000 33.980000 21.620000
313 11 2 -0.723387 12.570000 34.230000 23.740000
314 11 3 0.686578 13.540000 34.600000 22.920000
315 11 4 -0.702118 13.200000 35.490000 21.890000
316 11 5 0.467850 12.390000 36.720000 21.700000
317 11 7 -0.628009 12.810000 37.680000 20.640000
318 11 9 0.394768 12.300000 38.500000 20.810000
319 11 8 -0.031221 12.520000 37.410000 22.550000
320 11 8 0.031089 11.300000 36.730000 21.800000
321 11 6 0.384852 14.090000 35.420000 21.410000
322 11 2 -0.541197 12.040000 30.460000 21.180000
323 11 3 0.826629 12.210000 29.400000 21.970000
324 11 4 -0.720973 13.010000 28.310000 21.650000
325 11 5 0.324077 13.870000 28.100000 20.460000
326 11 7 -0.633848 14.420000 26.830000 20.650000
327 11 9 0.421918 14.870000 26.630000 19.810000
328 11 8 0.026269 14.640000 28.840000 20.710000
329 11 8 0.072727 13.410000 28.210000 19.470000
330 11 6 0.403281 13.210000 27.680000 22.410000
331 12 1 0.000000 33.770000 50.540000 38.000000
332 12 1 0.000000 31.610000 53.330000 41.730000
333 12 1 0.000000 29.840000 49.400000 39.710000
334 12 2 -0.901187 33.770000 50.540000 38.000000
335 12 3 0.993526 32.800000 51.510000 38.210000
336 12 4 -0.735566 31.850000 51.260000 39.210000
337 12 5 0.306405 32.230000 50.400000 40.390000
338 12 7 -0.577392 31.320000 50.360000 41.420000
339 12 9 0.367197 31.260000 49.400000 41.590000
340 12 8 0.086304 33.260000 50.630000 40.690000
341 12 8 0.006047 32.570000 49.410000 40.060000
342 12 6 0.395381 31.240000 52.070000 39.170000
343 12 2 -0.723387 30.260000 55.220000 41.060000
344 12 3 0.686578 31.230000 55.590000 40.240000
345 12 4 -0.702118 30.890000 56.480000 39.210000
346 12 5 0.467850 30.080000 57.710000 39.020000
347 12 7 -0.628009 30.500000 58.670000 37.960000
348 12 9 0.394768 29.990000 59.490000 38.130000
349 12 8 -0.031221 30.210000 58.400000 39.870000
350 12 8 0.031089 28.990000 57.720000 39.120000
351 12 6 0.384852 31.780000 56.410000 38.730000
352 12 2 -0.541197 30.480000 50.810000 37.800000
353 12 3 0.826629 30.650000 49.750000 38.590000
354 12 4 -0.720973 31.450000 48.660000 38.270000
355 12 5 0.324077 32.310000 48.450000 37.080000
356 12 7 -0.633848 32.860000 47.180000 37.270000
357 12 9 0.421918 33.310000 46.980000 36.430000
358 12 8 0.026269 33.080000 49.190000 37.330000
359 12 8 0.072727 31.850000 48.560000 36.090000
360 12 6 0.403281 31.650000 48.030000 39.030000
361 13 1 0.000000 10.990000 22.640000 42.550000
362 13 1 0.000000 12.380000 22.460000 38.260000
363 13 1 0.000000 14.420000 19.930000 42.100000
364 13 2 -0.901187 10.990000 22.640000 42.550000
365 13 3 0.993526 10.020000 23.610000 42.760000
366 13 4 -0.735566 9.070000 23.360000 43.760000
367 13 5 0.306405 9.450000 22.500000 44.940000
368 13 7 -0.577392 8.540000 22.460000 45.970000
369 13 9 0.367197 8.480000 21.500000 46.140000
370 13 8 0.086304 10.480000 22.730000 45.240000
371 13 8 0.006047 9.790000 21.510000 44.610000
372 13 6 0.395381 8.460000 24.170000 43.720000
373 13 2 -0.723387 11.030000 24.350000 37.590000
374 13 3 0.686578 12.000000 24.720000 36.770000
375 13 4 -0.702118 11.660000 25.610000 35.740000
376 13 5 0.467850 10.850000 26.840000 35.550000
377 13 7 -0.628009 11.270000 27.800000 34.490000
378 13 9 0.394768 10.760000 28.620000 34.660000
379 13 8 -0.031221 10.980000 27.530000 36.400000
380 13 8 0.031089 9.760000 26.850000 35.650000
381 13 6 0.384852 12.550000 25.540000 35.260000
382 13 2 -0.541197 15.060000 21.340000 40.190000
383 13 3 0.826629 15.230000 20.280000 40.980000
384 13 4 -0.720973 16.030000 19.190000 40.660000
385 13 5 0.324077 16.890000 18.980000 39.470000
386 13 7 -0.633848 17.440000 17.710000 39.660000
387 13 9 0.421918 17.890000 17.510000 38.820000
388 13 8 0.026269 17.660000 19.720000 39.720000
389 13 8 0.072727 16.430000 19.090000 38.480000
390 13 6 0.403281 16.230000 18.560000 41.420000
391 14 1 0.000000 5.660000 0.630000 30.860000
392 14 1 0.000000 8.060000 -3.420000 30.060000
393 14 1 0.000000 6.260000 -1.590000 26.990000
394 14 2 -0.901187 5.660000 0.630000 30.860000
395 14 3 0.993526 4.690000 1.600000 31.070000
396 14 4 -0.735566 3.740000 1.350000 32.070000
397 14 5 0.306405 4.120000 0.490000 33.250000
398 14 7 -0.577392 3.210000 0.450000 34.280000
399 14 9 0.367197 3.150000 -0.510000 34.450000
400 14 8 0.086304 5.150000 0.720000 33.550000
401 14 8 0.006047 4.460000 -0.500000 32.920000
402 14 6 0.395381 3.130000 2.160000 32.030000
403 14 2 -0.723387 6.710000 -1.530000 29.390000
404 14 3 0.686578 7.680000 -1.160000 28.570000
405 14 4 -0.702118 7.340000 -0.270000 27.540000
406 14 5 0.467850 6.530000 0.960000 27.350000
407 14 7 -0.628009 6.950000 1.920000 26.290000
408 14 9 0.394768 6.440000 2.740000 26.460000
409 14 8 -0.031221 6.660000 1.650000 28.200000
410 14 8 0.031089 5.440000 0.970000 27.450000
411 14 6 0.384852 8.230000 -0.340000 27.060000
412 14 2 -0.541197 6.900000 -0.180000 25.080000
413 14 3 0.826629 7.070000 -1.240000 25.870000
414 14 4 -0.720973 7.870000 -2.330000 25.550000
415 14 5 0.324077 8.730000 -2.540000 24.360000
416 14 7 -0.633848 9.280000 -3.810000 24.550000
417 14 9 0.421918 9.730000 -4.010000 23.710000
418 14 8 0.026269 9.500000 -1.800000 24.610000
419 14 8 0.072727 8.270000 -2.430000 23.370000
420 14 6 0.403281 8.070000 -2.960000 26.310000
421 15 1 0.000000 25.680000 49.490000 64.750000
422 15 1 0.000000 29.290000 52.290000 64.440000
423 15 1 0.000000 24.340000 53.420000 64.070000
424 15 2 -0.901187 25.680000 49.490000 64.750000
425 15 3 0.993526 24.710000 50.460000 64.960000
426 15 4 -0.735566 23.760000 50.210000 65.960000
427 15 5 0.306405 24.140000 49.350000 67.140000
428 15 7 -0.577392 23.230000 49.310000 68.170000
429 15 9 0.367197 23.170000 48.350000 68.340000
430 15 8 0.086304 25.170000 49.580000 67.440000
431 15 8 0.006047 24.480000 48.360000 66.810000
432 15 6 0.395381 23.150000 51.020000 65.920000
433 15 2 -0.723387 27.940000 54.180000 63.770000
434 15 3 0.686578 28.910000 54.550000 62.950000
435 15 4 -0.702118 28.570000 55.440000 61.920000
436 15 5 0.467850 27.760000 56.670000 61.730000
437 15 7 -0.628009 28.180000 57.630000 60.670000
438 15 9 0.394768 27.670000 58.450000 60.840000
439 15 8 -0.031221 27.890000 57.360000 62.580000
440 15 8 0.031089 26.670000 56.680000 61.830000
441 15 6 0.384852 29.460000 55.370000 61.440000
442 15 2 -0.541197 24.980000 54.830000 62.160000
443 15 3 0.826629 25.150000 53.770000 62.950000
444 15 4 -0.720973 25.950000 52.680000 62.630000
445 15 5 0.324077 26.810000 52.470000 61.440000
446 15 7 -0.633848 27.360000 51.200000 61.630000
447 15 9 0.421918 27.810000 51.000000 60.790000
448 15 8 0.026269 27.580000 53.210000 61.690000
449 15 8 0.072727 26.350000 52.580000 60.450000
450 15 6 0.403281 26.150000 52.050000 63.390000
451 16 1 0.000000 4.780000 18.270000 51.560000
452 16 1 0.000000 2.290000 21.710000 48.870000
453 16 1 0.000000 2.870000 17.260000 47.320000
454 16 2 -0.901187 4.780000 18.270000 51.560000
455 16 3 0.993526 3.810000 19.240000 51.770000
456 16 4 -0.735566 2.860000 18.990000 52.770000
457 16 5 0.306405 3.240000 18.130000 53.950000
458 16 7 -0.577392 2.330000 18.090000 54.980000
459 16 9 0.367197 2.270000 17.130000 55.150000
460 16 8 0.086304 4.270000 18.360000 54.250000
461 16 8 0.006047 3.580000 17.140000 53.620000
462 16 6 0.395381 2.250000 19.800000 52.730000
463 16 2 -0.723387 0.940000 23.600000 48.200000
464 16 3 0.686578 1.910000 23.970000 47.380000
465 16 4 -0.702118 1.570000 24.860000 46.350000
466 16 5 0.467850 0.760000 26.090000 46.160000
467 16 7 -0.628009 1.180000 27.050000 45.100000
468 16 9 0.394768 0.670000 27.870000 45.270000
469 16 8 -0.031221 0.890000 26.780000 47.010000
470 16 8 0.031089 -0.330000 26.100000 46.260000
471 16 6 0.384852 2.460000 24.790000 45.870000
472 16 2 -0.541197 3.510000 18.670000 45.410000
473 16 3 0.826629 3.680000 17.610000 46.200000
474 16 4 -0.720973 4.480000 16.520000 45.880000
475 16 5 0.324077 5.340000 16.310000 44.690000
476 16 7 -0.633848 5.890000 15.040000 44.880000
477 16 9 0.421918 6.340000 14.840000 44.040000
478 16 8 0.026269 6.110000 17.050000 44.940000
479 16 8 0.072727 4.880000 16.420000 43.700000
480 16 6 0.403281 4.680000 15.890000 46.640000
481 17 1 0.000000 12.080000 37.680000 41.780000
482 17 1 0.000000 7.890000 36.430000 43.710000
483 17 1 0.000000 7.440000 38.970000 39.660000
484 17 2 -0.901187 12.080000 37.680000 41.780000
485 17 3 0.993526 11.110000 38.650000 41.990000
486 17 4 -0.735566 10.160000 38.400000 42.990000
487 17 5 0.306405 10.540000 37.540000 44.170000
488 17 7 -0.577392 9.630000 37.500000 45.200000
489 17 9 0.367197 9.570000 36.540000 45.370000
490 17 8 0.086304 11.570000 37.770000 44.470000
491 17 8 0.006047 10.880000 36.550000 43.840000
492 17 6 0.395381 9.550000 39.210000 42.950000
493 17 2 -0.723387 6.540000 38.320000 43.040000
494 17 3 0.686578 7.510000 38.690000 42.220000
495 17 4 -0.702118 7.170000 39.580000 41.190000
496 17 5 0.467850 6.360000 40.810000 41.000000
497 17 7 -0.628009 6.780000 41.770000 39.940000
498 17 9 0.394768 6.270000 42.590000 40.110000
499 17 8 -0.031221 6.490000 41.500000 41.850000
500 17 8 0.031089 5.270000 40.820000 41.100000
501 17 6 0.384852 8.060000 39.510000 40.710000
502 17 2 -0.541197 8.080000 40.380000 37.750000
503 17 3 0.826629 8.250000 39.320000 38.540000
504 17 4 -0.720973 9.050000 38.230000 38.220000
505 17 5 0.324077 9.910000 38.020000 37.030000
506 17 7 -0.633848 10.460000 36.750000 37.220000
507 17 9 0.421918 10.910000 36.550000 36.380000
508 17 8 0.026269 10.680000 38.760000 37.280000
509 17 8 0.072727 9.450000 38.130000 36.040000
510 17 6 0.403281 9.250000 37.600000 38.980000
511 18 1 0.000000 3.120000 25.130000 35.750000
512 18 1 0.000000 -1.820000 25.840000 35.590000
513 18 1 0.000000 0.020000 24.250000 31.740000
514 18 2 -0.901187 3.120000 25.130000 35.750000
515 18 3 0.993526 2.150000 26.100000 35.960000
516 18 4 -0.735566 1.200000 25.850000 36.960000
517 18 5 0.306405 1.580000 24.990000 38.140000
518 18 7 -0.577392 0.670000 24.950000 39.170000
519 18 9 0.367197 0.610000 23.990000 39.340000
520 18 8 0.086304 2.610000 25.220000 38.440000
521 18 8 0.006047 1.920000 24.000000 37.810000
522 18 6 0.395381 0.590000 26.660000 36.920000
523 18 2 -0.723387 -3.170000 27.730000 34.920000
524 18 3 0.686578 -2.200000 28.100000 34.100000
525 18 4 -0.702118 -2.540000 28.990000 33.070000
526 18 5 0.467850 -3.350000 30.220000 32.880000
527 18 7 -0.628009 -2.930000 31.180000 31.820000
528 18 9 0.394768 -3.440000 32.000000 31.990000
529 18 8 -0.031221 -3.220000 30.910000 33.730000
530 18 8 0.031089 -4.440000 30.230000 32.980000
531 18 6 0.384852 -1.650000 28.920000 32.590000
532 18 2 -0.541197 0.660000 25.660000 29.830000
533 18 3 0.826629 0.830000 24.600000 30.620000
534 18 4 -0.720973 1.630000 23.510000 30.300000
535 18 5 0.324077 2.490000 23.300000 29.110000
536 18 7 -0.633848 3.040000 22.030000 29.300000
537 18 9 0.421918 3.490000 21.830000 28.460000
538 18 8 0.026269 3.260000 24.040000 29.360000
539 18 8 0.072727 2.030000 23.410000 28.120000
540 18 6 0.403281 1.830000 22.880000 31.060000
541 19 1 0.000000 45.120000 61.910000 50.360000
542 19 1 0.000000 43.370000 61.680000 46.470000
543 19 1 0.000000 48.080000 62.760000 46.740000
544 19 2 -0.901187 45.120000 61.910000 50.360000
545 19 3 0.993526 44.150000 62.880000 50.570000
546 19 4 -0.735566 43.200000 62.630000 51.570000
547 19 5 0.306405 43.580000 61.770000 52.750000
548 19 7 -0.577392 42.670000 61.730000 53.780000
549 19 9 0.367197 42.610000 60.770000 53.950000
550 19 8 0.086304 44.610000 62.000000 53.050000
551 19 8 0.006047 43.920000 60.780000 52.420000
552 19 6 0.395381 42.590000 63.440000 51.530000
553 19 2 -0.723387 42.020000 63.570000 45.800000
554 19 3 0.686578 42.990000 63.940000 44.980000
555 19 4 -0.702118 42.650000 64.830000 43.950000
556 19 5 0.467850 41.840000 66.060000 43.760000
557 19 7 -0.628009 42.260000 67.020000 42.700000
558 19 9 0.394768 41.750000 67.840000 42.870000
559 19 8 -0.031221 41.970000 66.750000 44.610000
560 19 8 0.031089 40.750000 66.070000 43.860000
561 19 6 0.384852 43.540000 64.760000 43.470000
562 19 2 -0.541197 48.720000 64.170000 44.830000
563 19 3 0.826629 48.890000 63.110000 45.620000
564 19 4 -0.720973 49.690000 62.020000 45.300000
565 19 5 0.324077 50.550000 61.810000 44.110000
566 19 7 -0.633848 51.100000 60.540000 44.300000
567 19 9 0.421918 51.550000 60.340000 43.460000
568 19 8 0.026269 51.320000 62.550000 44.360000
569 19 8 0.072727 50.090000 61.920000 43.120000
570 19 6 0.403281 49.890000 61.390000 46.060000
571 20 1 0.000000 11.650000 51.580000 44.110000
572 20 1 0.000000 7.640000 50.960000 41.960000
573 20 1 0.000000 10.060000 47.280000 42.800000
574 20 2 -0.901187 11.650000 51.580000 44.110000
575 20 3 0.993526 10.680000 52.550000 44.320000
576 20 4 -0.735566 9.730000 52.300000 45.320000
577 20 5 0.306405 10.110000 51.440000 46.500000
578 20 7 -0.577392 9.200000 51.400000 47.530000
579 20 9 0.367197 9.140000 50.440000 47.700000
580 20 8 0.086304 11.140000 51.670000 46.800000
581 20 8 0.006047 10.450000 50.450000 46.170000
582 20 6 0.395381 9.120000 53.110000 45.280000
583 20 2 -0.723387 6.290000 52.850000 41.290000
584 20 3 0.686578 7.260000 53.220000 40.470000
585 20 4 -0.702118 6.920000 54.110000 39.440000
586 20 5 0.467850 6.110000 55.340000 39.250000
587 20 7 -0.628009 6.530000 56.300000 38.190000
588 20 9 0.394768 6.020000 57.120000 38.360000
589 20 8 -0.031221 6.240000 56.030000 40.100000
590 20 8 0.031089 5.020000 55.350000 39.350000
591 20 6 0.384852 7.810000 54.040000 38.960000
592 20 2 -0.541197 10.700000 48.690000 40.890000
593 20 3 0.826629 10.870000 47.630000 41.680000
594 20 4 -0.720973 11.670000 46.540000 41.360000
595 20 5 0.324077 12.530000 46.330000 40.170000
596 20 7 -0.633848 13.080000 45.060000 40.360000
597 20 9 0.421918 13.530000 44.860000 39.520000
598 20 8 0.026269 13.300000 47.070000 40.420000
599 20 8 0.072727 12.070000 46.440000 39.180000
600 20 6 0.403281 11.870000 45.910000 42.120000
601 21 1 0.000000 0.110000 40.610000 31.200000
602 21 1 0.000000 0.950000 42.010000 35.400000
603 21 1 0.000000 -3.060000 42.560000 34.460000
604 21 2 -0.901187 0.110000 40.610000 31.200000
605 21 3 0.993526 -0.860000 41.580000 31.410000
606 21 4 -0.735566 -1.810000 41.330000 32.410000
607 21 5 0.306405 -1.430000 40.470000 33.590000
608 21 7 -0.577392 -2.340000 40.430000 34.620000
609 21 9 0.367197 -2.400000 39.470000 34.790000
610 21 8 0.086304 -0.400000 40.700000 33.890000
611 21 8 0.006047 -1.090000 39.480000 33.260000
612 21 6 0.395381 -2.420000 42.140000 32.370000
613 21 2 -0.723387 -0.400000 43.900000 34.730000
614 21 3 0.686578 0.570000 44.270000 33.910000
615 21 4 -0.702118 0.230000 45.160000 32.880000
616 21 5 0.467850 -0.580000 46.390000 32.690000
617 21 7 -0.628009 -0.160000 47.350000 31.630000
618 21 9 0.394768 -0.670000 48.170000 31.800000
619 21 8 -0.031221 -0.450000 47.080000 33.540000
620 21 8 0.031089 -1.670000 46.400000 32.790000
621 21 6 0.384852 1.120000 45.090000 32.400000
622 21 2 -0.541197 -2.420000 43.970000 32.550000
623 21 3 0.826629 -2.250000 42.910000 33.340000